TITLE = "B00013"
VARIABLES = "position", "position(2)", "Vx", "Vy"
ZONE T="Frame 0", I=51, J=39
-131.145575 97.585173 11.025506 0.708019
-127.182727 97.585173 11.802890 0.744541
-123.219879 97.585173 11.014257 0.488565
-119.257031 97.585173 11.326614 0.548285
-115.294183 97.585173 11.118302 0.449210
-111.331335 97.585173 0.000000 0.000000
-107.368487 97.585173 0.000000 0.000000
-103.405639 97.585173 0.000000 0.000000
-99.442791 97.585173 0.000000 0.000000
-95.479943 97.585173 0.000000 0.000000
-91.517095 97.585173 0.000000 0.000000
-87.554247 97.585173 11.554843 0.201827
-83.591400 97.585173 11.590599 0.255025
-79.628552 97.585173 11.281549 0.315550
-75.665704 97.585173 11.571712 0.111307
-71.702856 97.585173 11.575006 0.159212
-67.740008 97.585173 11.651835 0.155764
-63.777160 97.585173 11.485726 0.171592
-59.814312 97.585173 11.300693 -0.047461
-55.851464 97.585173 11.365304 0.166626
-51.888616 97.585173 11.404343 -0.084439
-47.925768 97.585173 11.567643 -0.118821
-43.962920 97.585173 11.232244 -0.031966
-40.000072 97.585173 11.538436 0.061896
-36.037224 97.585173 11.366092 -0.119995
-32.074376 97.585173 11.502069 -0.049670
-28.111528 97.585173 11.597208 -0.159729
-24.148680 97.585173 11.540770 0.084015
-20.185832 97.585173 11.155618 -0.048628
-16.222984 97.585173 11.225356 -0.215888
-12.260136 97.585173 0.000000 0.000000
-8.297289 97.585173 0.000000 0.000000
-4.334441 97.585173 0.000000 0.000000
-0.371593 97.585173 11.270562 0.229397
3.591255 97.585173 11.175488 0.121577
7.554103 97.585173 11.361002 -0.039799
11.516951 97.585173 10.986581 -0.155433
15.479799 97.585173 11.079527 -0.049198
19.442647 97.585173 11.140224 -0.194001
23.405495 97.585173 11.006822 -0.082076
27.368343 97.585173 11.077100 -0.096046
31.331191 97.585173 11.023915 0.058912
35.294039 97.585173 11.059061 -0.111418
39.256887 97.585173 11.061483 0.100129
43.219735 97.585173 11.085323 0.019492
47.182583 97.585173 11.152048 -0.072506
51.145431 97.585173 10.895170 -0.047301
55.108279 97.585173 10.982208 0.043490
59.071127 97.585173 11.194406 0.176590
63.033975 97.585173 11.013741 -0.101154
66.996822 97.585173 10.955204 0.059115
-131.145575 93.622325 10.747299 0.164204
-127.182727 93.622325 10.794716 0.502380
-123.219879 93.622325 11.178855 0.114723
-119.257031 93.622325 11.173697 0.415675
-115.294183 93.622325 11.259022 0.312625
-111.331335 93.622325 0.000000 0.000000
-107.368487 93.622325 0.000000 0.000000
-103.405639 93.622325 0.000000 0.000000
-99.442791 93.622325 0.000000 0.000000
-95.479943 93.622325 0.000000 0.000000
-91.517095 93.622325 0.000000 0.000000
-87.554247 93.622325 11.480244 0.434658
-83.591400 93.622325 11.611531 0.356042
-79.628552 93.622325 11.438908 0.101718
-75.665704 93.622325 11.541830 0.063673
-71.702856 93.622325 11.255247 0.313060
-67.740008 93.622325 11.451935 0.104768
-63.777160 93.622325 11.602942 0.145901
-59.814312 93.622325 11.426237 0.401781
-55.851464 93.622325 11.420004 0.079006
-51.888616 93.622325 11.547822 0.068052
-47.925768 93.622325 11.367023 0.001604
-43.962920 93.622325 11.176582 -0.089540
-40.000072 93.622325 11.346986 -0.165561
-36.037224 93.622325 11.012072 -0.061372
-32.074376 93.622325 11.200123 0.001487
-28.111528 93.622325 11.312792 -0.071813
-24.148680 93.622325 11.311469 -0.095693
-20.185832 93.622325 11.357780 -0.073362
-16.222984 93.622325 11.488388 -0.063459
-12.260136 93.622325 0.000000 0.000000
-8.297289 93.622325 0.000000 0.000000
-4.334441 93.622325 0.000000 0.000000
-0.371593 93.622325 11.328186 0.080160
3.591255 93.622325 11.064485 0.007397
7.554103 93.622325 11.319661 -0.153186
11.516951 93.622325 11.127927 -0.262463
15.479799 93.622325 11.109059 -0.152733
19.442647 93.622325 11.067856 -0.276740
23.405495 93.622325 11.076191 -0.176298
27.368343 93.622325 11.064761 0.100301
31.331191 93.622325 11.100389 -0.077380
35.294039 93.622325 11.078558 -0.041291
39.256887 93.622325 11.084615 -0.085580
43.219735 93.622325 11.041491 -0.066124
47.182583 93.622325 10.865977 -0.127695
51.145431 93.622325 10.998347 0.018314
55.108279 93.622325 10.969123 0.032206
59.071127 93.622325 11.156324 0.029157
63.033975 93.622325 10.964972 0.065532
66.996822 93.622325 10.855861 -0.095195
-131.145575 89.659477 3.183648 14.851850
-127.182727 89.659477 11.146809 0.592578
-123.219879 89.659477 11.092142 0.625465
-119.257031 89.659477 11.054860 0.499707
-115.294183 89.659477 11.207421 0.630779
-111.331335 89.659477 0.000000 0.000000
-107.368487 89.659477 0.000000 0.000000
-103.405639 89.659477 0.000000 0.000000
-99.442791 89.659477 0.000000 0.000000
-95.479943 89.659477 0.000000 0.000000
-91.517095 89.659477 0.000000 0.000000
-87.554247 89.659477 11.725251 0.457562
-83.591400 89.659477 11.593402 0.260722
-79.628552 89.659477 11.504349 0.366323
-75.665704 89.659477 11.424027 0.299411
-71.702856 89.659477 11.527122 -0.049826
-67.740008 89.659477 11.797583 0.324885
-63.777160 89.659477 11.568798 0.187923
-59.814312 89.659477 11.820543 0.104391
-55.851464 89.659477 11.445903 0.293721
-51.888616 89.659477 11.363769 -0.038417
-47.925768 89.659477 11.546679 -0.177029
-43.962920 89.659477 11.312795 0.104970
-40.000072 89.659477 11.447536 -0.207910
-36.037224 89.659477 11.339741 -0.209352
-32.074376 89.659477 11.348832 -0.377546
-28.111528 89.659477 11.146613 -0.316045
-24.148680 89.659477 11.273455 -0.050442
-20.185832 89.659477 11.257547 -0.124347
-16.222984 89.659477 11.103315 -0.137978
-12.260136 89.659477 0.000000 0.000000
-8.297289 89.659477 0.000000 0.000000
-4.334441 89.659477 0.000000 0.000000
-0.371593 89.659477 11.245065 -0.162703
3.591255 89.659477 11.256501 0.118924
7.554103 89.659477 11.223652 -0.056448
11.516951 89.659477 10.961885 -0.114004
15.479799 89.659477 11.016456 -0.335570
19.442647 89.659477 10.906137 -0.011879
23.405495 89.659477 10.945112 0.123765
27.368343 89.659477 11.073185 0.245552
31.331191 89.659477 10.958403 -0.020733
35.294039 89.659477 11.039062 -0.105159
39.256887 89.659477 10.953599 0.034131
43.219735 89.659477 10.921618 -0.116780
47.182583 89.659477 11.014024 0.031968
51.145431 89.659477 11.029011 -0.018549
55.108279 89.659477 11.037051 -0.063127
59.071127 89.659477 10.882379 0.064147
63.033975 89.659477 11.143624 -0.137991
66.996822 89.659477 10.874671 0.236460
-131.145575 85.696629 11.955656 0.376014
-127.182727 85.696629 -3.385264 -2.414853
-123.219879 85.696629 11.447592 0.801235
-119.257031 85.696629 11.376984 0.377146
-115.294183 85.696629 11.135516 0.620414
-111.331335 85.696629 0.000000 0.000000
-107.368487 85.696629 0.000000 0.000000
-103.405639 85.696629 0.000000 0.000000
-99.442791 85.696629 0.000000 0.000000
-95.479943 85.696629 0.000000 0.000000
-91.517095 85.696629 0.000000 0.000000
-87.554247 85.696629 11.522131 0.366330
-83.591400 85.696629 11.448551 0.347348
-79.628552 85.696629 11.577159 0.248240
-75.665704 85.696629 11.717816 0.081790
-71.702856 85.696629 11.638027 0.159463
-67.740008 85.696629 11.475385 0.106612
-63.777160 85.696629 11.546354 0.176479
-59.814312 85.696629 11.619712 -0.041481
-55.851464 85.696629 11.693748 0.114592
-51.888616 85.696629 11.682506 0.062741
-47.925768 85.696629 11.456396 0.118063
-43.962920 85.696629 11.433624 -0.284435
-40.000072 85.696629 11.473206 -0.020828
-36.037224 85.696629 11.457674 -0.108476
-32.074376 85.696629 11.388601 -0.048942
-28.111528 85.696629 11.259275 -0.067442
-24.148680 85.696629 11.308152 -0.046463
-20.185832 85.696629 11.375345 -0.087301
-16.222984 85.696629 11.427710 -0.207730
-12.260136 85.696629 0.000000 0.000000
-8.297289 85.696629 0.000000 0.000000
-4.334441 85.696629 0.000000 0.000000
-0.371593 85.696629 11.103947 -0.049481
3.591255 85.696629 11.337292 -0.061461
7.554103 85.696629 11.102070 -0.200214
11.516951 85.696629 11.210058 -0.024475
15.479799 85.696629 10.962049 -0.186163
19.442647 85.696629 11.169486 0.151290
23.405495 85.696629 11.078746 -0.179024
27.368343 85.696629 11.049618 -0.121175
31.331191 85.696629 10.961119 0.125805
35.294039 85.696629 10.926667 -0.053480
39.256887 85.696629 11.088609 0.123095
43.219735 85.696629 11.096283 -0.085321
47.182583 85.696629 11.020444 -0.119015
51.145431 85.696629 10.936797 -0.325182
55.108279 85.696629 11.044535 0.052326
59.071127 85.696629 10.947424 -0.122006
63.033975 85.696629 11.065697 0.132699
66.996822 85.696629 10.892090 -0.108282
-131.145575 81.733781 3.633087 -12.344832
-127.182727 81.733781 10.934736 0.784848
-123.219879 81.733781 11.104650 0.743229
-119.257031 81.733781 11.242867 0.698985
-115.294183 81.733781 11.328811 0.551172
-111.331335 81.733781 0.000000 0.000000
-107.368487 81.733781 0.000000 0.000000
-103.405639 81.733781 0.000000 0.000000
-99.442791 81.733781 0.000000 0.000000
-95.479943 81.733781 0.000000 0.000000
-91.517095 81.733781 0.000000 0.000000
-87.554247 81.733781 11.580225 0.386899
-83.591400 81.733781 11.473382 0.568564
-79.628552 81.733781 11.653896 0.382900
-75.665704 81.733781 11.674943 0.194389
-71.702856 81.733781 11.760696 0.340769
-67.740008 81.733781 11.681374 0.138642
-63.777160 81.733781 11.725418 0.222354
-59.814312 81.733781 11.556279 0.046906
-55.851464 81.733781 11.631544 -0.070236
-51.888616 81.733781 11.582295 -0.005605
-47.925768 81.733781 11.387280 -0.083473
-43.962920 81.733781 11.586296 -0.133690
-40.000072 81.733781 11.356047 -0.096784
-36.037224 81.733781 11.426059 -0.235714
-32.074376 81.733781 11.299321 -0.202887
-28.111528 81.733781 11.500229 -0.297661
-24.148680 81.733781 11.465962 -0.215701
-20.185832 81.733781 11.223495 -0.138198
-16.222984 81.733781 11.232365 -0.220965
-12.260136 81.733781 0.000000 0.000000
-8.297289 81.733781 0.000000 0.000000
-4.334441 81.733781 0.000000 0.000000
-0.371593 81.733781 11.099828 -0.198995
3.591255 81.733781 11.213478 -0.165898
7.554103 81.733781 11.190555 -0.140840
11.516951 81.733781 10.972741 -0.263906
15.479799 81.733781 11.096210 -0.093793
19.442647 81.733781 11.100691 0.048214
23.405495 81.733781 11.012700 -0.253548
27.368343 81.733781 11.048051 -0.108006
31.331191 81.733781 11.010104 -0.184626
35.294039 81.733781 11.109937 -0.141062
39.256887 81.733781 10.918373 -0.053872
43.219735 81.733781 10.970755 0.161181
47.182583 81.733781 11.001762 0.049511
51.145431 81.733781 11.076509 -0.073088
55.108279 81.733781 11.136288 0.088927
59.071127 81.733781 11.001442 0.185586
63.033975 81.733781 11.006482 -0.238228
66.996822 81.733781 11.067285 0.184136
-131.145575 77.770933 11.705801 -0.172132
-127.182727 77.770933 11.083918 0.490748
-123.219879 77.770933 11.045053 0.388010
-119.257031 77.770933 11.219159 0.569690
-115.294183 77.770933 11.081274 0.715993
-111.331335 77.770933 0.000000 0.000000
-107.368487 77.770933 0.000000 0.000000
-103.405639 77.770933 0.000000 0.000000
-99.442791 77.770933 0.000000 0.000000
-95.479943 77.770933 0.000000 0.000000
-91.517095 77.770933 11.784737 0.491390
-87.554247 77.770933 11.532327 0.353435
-83.591400 77.770933 11.529696 0.411523
-79.628552 77.770933 11.759294 0.291415
-75.665704 77.770933 11.675663 0.200504
-71.702856 77.770933 11.533811 -0.040498
-67.740008 77.770933 11.653598 0.275844
-63.777160 77.770933 11.639083 0.036095
-59.814312 77.770933 11.551758 -0.018648
-55.851464 77.770933 11.521049 -0.061079
-51.888616 77.770933 11.803223 -0.228702
-47.925768 77.770933 11.547600 -0.163242
-43.962920 77.770933 11.621435 -0.083311
-40.000072 77.770933 11.400016 -0.131245
-36.037224 77.770933 11.516971 -0.133460
-32.074376 77.770933 11.480577 -0.174974
-28.111528 77.770933 11.360715 -0.158262
-24.148680 77.770933 11.221526 -0.097716
-20.185832 77.770933 11.329148 -0.357278
-16.222984 77.770933 11.310201 -0.283350
-12.260136 77.770933 0.000000 0.000000
-8.297289 77.770933 0.000000 0.000000
-4.334441 77.770933 0.000000 0.000000
-0.371593 77.770933 11.135199 0.084918
3.591255 77.770933 11.086114 -0.240115
7.554103 77.770933 10.998559 -0.271329
11.516951 77.770933 11.075868 -0.118360
15.479799 77.770933 11.211155 -0.116845
19.442647 77.770933 11.039389 -0.162786
23.405495 77.770933 11.075972 -0.100101
27.368343 77.770933 10.867972 -0.246184
31.331191 77.770933 10.930526 -0.232112
35.294039 77.770933 11.007723 -0.166722
39.256887 77.770933 10.990630 -0.037494
43.219735 77.770933 10.963014 -0.133413
47.182583 77.770933 10.892051 -0.151650
51.145431 77.770933 10.978171 -0.150996
55.108279 77.770933 10.914226 -0.062306
59.071127 77.770933 11.144483 0.056654
63.033975 77.770933 10.912394 0.119131
66.996822 77.770933 10.875801 0.090268
-131.145575 73.808085 -12.095137 -8.144801
-127.182727 73.808085 -13.690397 -13.688901
-123.219879 73.808085 11.325232 0.778480
-119.257031 73.808085 11.297827 0.602089
-115.294183 73.808085 11.457276 0.672471
-111.331335 73.808085 0.000000 0.000000
-107.368487 73.808085 0.000000 0.000000
-103.405639 73.808085 0.000000 0.000000
-99.442791 73.808085 0.000000 0.000000
-95.479943 73.808085 0.000000 0.000000
-91.517095 73.808085 11.629343 0.633651
-87.554247 73.808085 11.610744 0.451597
-83.591400 73.808085 11.763104 0.372703
-79.628552 73.808085 11.840020 0.423084
-75.665704 73.808085 11.746498 0.367627
-71.702856 73.808085 11.767807 0.056410
-67.740008 73.808085 11.585752 0.287766
-63.777160 73.808085 11.718515 0.171665
-59.814312 73.808085 11.699744 0.154582
-55.851464 73.808085 11.578396 -0.125001
-51.888616 73.808085 11.721918 -0.075051
-47.925768 73.808085 11.476406 -0.172353
-43.962920 73.808085 11.652477 -0.106959
-40.000072 73.808085 11.720523 -0.330909
-36.037224 73.808085 11.484797 -0.151050
-32.074376 73.808085 11.449144 -0.281057
-28.111528 73.808085 11.573585 -0.280460
-24.148680 73.808085 11.490853 -0.301814
-20.185832 73.808085 11.421289 -0.188891
-16.222984 73.808085 11.337456 -0.199196
-12.260136 73.808085 0.000000 0.000000
-8.297289 73.808085 0.000000 0.000000
-4.334441 73.808085 0.000000 0.000000
-0.371593 73.808085 11.026215 -0.259559
3.591255 73.808085 11.099356 -0.315380
7.554103 73.808085 11.029510 -0.236011
11.516951 73.808085 10.938479 -0.216683
15.479799 73.808085 10.946151 -0.138030
19.442647 73.808085 11.095955 -0.021450
23.405495 73.808085 10.954939 -0.176927
27.368343 73.808085 11.086805 0.051460
31.331191 73.808085 11.175572 -0.232028
35.294039 73.808085 10.913054 -0.001906
39.256887 73.808085 10.929434 -0.097438
43.219735 73.808085 11.070972 -0.038778
47.182583 73.808085 10.975361 0.000577
51.145431 73.808085 10.960774 0.153004
55.108279 73.808085 11.046458 0.018606
59.071127 73.808085 11.087852 -0.056390
63.033975 73.808085 11.047531 -0.083609
66.996822 73.808085 10.896389 -0.064981
-131.145575 69.845237 -9.715431 8.422263
-127.182727 69.845237 16.386648 10.234386
-123.219879 69.845237 11.096206 0.561891
-119.257031 69.845237 10.939904 0.792286
-115.294183 69.845237 11.379869 0.797979
-111.331335 69.845237 0.000000 0.000000
-107.368487 69.845237 0.000000 0.000000
-103.405639 69.845237 0.000000 0.000000
-99.442791 69.845237 0.000000 0.000000
-95.479943 69.845237 0.000000 0.000000
-91.517095 69.845237 11.640310 0.478411
-87.554247 69.845237 11.927502 0.590911
-83.591400 69.845237 11.780271 0.309011
-79.628552 69.845237 12.016276 0.273212
-75.665704 69.845237 11.962969 0.418247
-71.702856 69.845237 11.816691 0.046812
-67.740008 69.845237 11.808516 0.243176
-63.777160 69.845237 11.950035 0.227278
-59.814312 69.845237 11.837173 0.067986
-55.851464 69.845237 11.716587 -0.187558
-51.888616 69.845237 11.565863 -0.088574
-47.925768 69.845237 11.644584 -0.207868
-43.962920 69.845237 11.793849 -0.365388
-40.000072 69.845237 11.432145 -0.315109
-36.037224 69.845237 11.521541 -0.321554
-32.074376 69.845237 11.482027 -0.193933
-28.111528 69.845237 11.541203 -0.084002
-24.148680 69.845237 11.339288 -0.439828
-20.185832 69.845237 11.455997 -0.290733
-16.222984 69.845237 11.122629 -0.374657
-12.260136 69.845237 0.000000 0.000000
-8.297289 69.845237 0.000000 0.000000
-4.334441 69.845237 0.000000 0.000000
-0.371593 69.845237 11.130002 -0.290724
3.591255 69.845237 10.959880 -0.217957
7.554103 69.845237 10.939190 -0.001988
11.516951 69.845237 10.970570 -0.206258
15.479799 69.845237 10.991994 -0.192832
19.442647 69.845237 10.928205 0.204392
23.405495 69.845237 10.844798 -0.130239
27.368343 69.845237 10.971875 -0.076217
31.331191 69.845237 10.921043 -0.152627
35.294039 69.845237 11.216178 -0.021210
39.256887 69.845237 10.861178 0.038149
43.219735 69.845237 10.883106 -0.109300
47.182583 69.845237 10.957308 -0.053960
51.145431 69.845237 10.936481 -0.187691
55.108279 69.845237 11.083730 0.255598
59.071127 69.845237 10.992908 -0.123073
63.033975 69.845237 11.046449 0.085151
66.996822 69.845237 11.050965 -0.051078
-131.145575 65.882389 -10.287835 7.503247
-127.182727 65.882389 -4.719836 -5.571022
-123.219879 65.882389 10.767044 0.415151
-119.257031 65.882389 11.365113 0.882057
-115.294183 65.882389 11.433853 0.779715
-111.331335 65.882389 0.000000 0.000000
-107.368487 65.882389 0.000000 0.000000
-103.405639 65.882389 0.000000 0.000000
-99.442791 65.882389 0.000000 0.000000
-95.479943 65.882389 0.000000 0.000000
-91.517095 65.882389 11.732805 0.581356
-87.554247 65.882389 11.800668 0.655631
-83.591400 65.882389 11.668148 0.430122
-79.628552 65.882389 11.807698 0.141085
-75.665704 65.882389 11.986536 0.132822
-71.702856 65.882389 11.871997 0.093731
-67.740008 65.882389 11.881431 0.225531
-63.777160 65.882389 11.812838 -0.043805
-59.814312 65.882389 11.788551 0.105108
-55.851464 65.882389 11.886198 -0.074808
-51.888616 65.882389 11.765322 -0.260607
-47.925768 65.882389 11.826468 -0.274542
-43.962920 65.882389 11.507853 -0.264059
-40.000072 65.882389 11.423553 -0.360997
-36.037224 65.882389 11.600213 -0.340305
-32.074376 65.882389 11.662672 -0.388926
-28.111528 65.882389 11.492972 -0.311269
-24.148680 65.882389 11.408127 -0.281679
-20.185832 65.882389 11.338126 -0.288946
-16.222984 65.882389 11.364865 -0.352002
-12.260136 65.882389 0.000000 0.000000
-8.297289 65.882389 0.000000 0.000000
-4.334441 65.882389 11.181684 -0.332479
-0.371593 65.882389 10.815880 -0.253595
3.591255 65.882389 10.951382 -0.232376
7.554103 65.882389 10.965874 -0.144639
11.516951 65.882389 11.020611 -0.118869
15.479799 65.882389 10.860038 0.003015
19.442647 65.882389 10.935028 -0.026462
23.405495 65.882389 11.013520 -0.189033
27.368343 65.882389 10.767863 0.136229
31.331191 65.882389 11.013587 -0.078823
35.294039 65.882389 11.098415 0.007472
39.256887 65.882389 11.000326 0.070175
43.219735 65.882389 10.923557 0.057060
47.182583 65.882389 10.869373 -0.150811
51.145431 65.882389 11.142308 -0.205381
55.108279 65.882389 10.950730 -0.116330
59.071127 65.882389 11.049360 -0.147726
63.033975 65.882389 11.173010 -0.223997
66.996822 65.882389 10.892422 -0.090097
-131.145575 61.919541 0.903869 9.290539
-127.182727 61.919541 4.197800 -8.990326
-123.219879 61.919541 11.177141 0.665178
-119.257031 61.919541 11.144263 0.730058
-115.294183 61.919541 11.324320 0.721072
-111.331335 61.919541 0.000000 0.000000
-107.368487 61.919541 0.000000 0.000000
-103.405639 61.919541 0.000000 0.000000
-99.442791 61.919541 0.000000 0.000000
-95.479943 61.919541 0.000000 0.000000
-91.517095 61.919541 11.837716 0.743706
-87.554247 61.919541 11.881819 0.670126
-83.591400 61.919541 11.848971 0.434024
-79.628552 61.919541 12.178673 0.259660
-75.665704 61.919541 12.015579 -0.202154
-71.702856 61.919541 12.028708 0.345320
-67.740008 61.919541 12.046380 -0.020448
-63.777160 61.919541 11.886126 -0.351239
-59.814312 61.919541 12.059234 -0.018105
-55.851464 61.919541 11.878497 -0.146576
-51.888616 61.919541 11.720048 -0.032242
-47.925768 61.919541 11.719151 -0.165328
-43.962920 61.919541 11.733998 -0.133454
-40.000072 61.919541 11.620502 -0.456289
-36.037224 61.919541 11.637550 -0.365949
-32.074376 61.919541 11.547191 -0.370625
-28.111528 61.919541 11.465252 -0.438782
-24.148680 61.919541 11.422711 -0.369340
-20.185832 61.919541 11.252654 -0.377471
-16.222984 61.919541 11.190263 -0.569251
-12.260136 61.919541 0.000000 0.000000
-8.297289 61.919541 0.000000 0.000000
-4.334441 61.919541 10.987504 -0.471529
-0.371593 61.919541 10.964086 -0.425564
3.591255 61.919541 11.127435 -0.332858
7.554103 61.919541 10.843716 -0.335010
11.516951 61.919541 10.894880 -0.151485
15.479799 61.919541 10.890045 -0.314598
19.442647 61.919541 11.009832 -0.089137
23.405495 61.919541 10.972905 -0.096877
27.368343 61.919541 10.913056 -0.121971
31.331191 61.919541 10.957918 -0.094267
35.294039 61.919541 10.957511 -0.019742
39.256887 61.919541 10.885767 -0.075503
43.219735 61.919541 10.888573 0.144496
47.182583 61.919541 10.995325 -0.032983
51.145431 61.919541 10.870824 0.170216
55.108279 61.919541 10.966580 0.140422
59.071127 61.919541 11.049129 0.006832
63.033975 61.919541 11.002785 -0.272003
66.996822 61.919541 10.886873 -0.172417
-131.145575 57.956694 -15.711407 -16.169172
-127.182727 57.956694 -11.122076 -10.823257
-123.219879 57.956694 11.105870 0.778761
-119.257031 57.956694 10.968367 0.958319
-115.294183 57.956694 11.252604 1.040826
-111.331335 57.956694 0.000000 0.000000
-107.368487 57.956694 0.000000 0.000000
-103.405639 57.956694 0.000000 0.000000
-99.442791 57.956694 0.000000 0.000000
-95.479943 57.956694 12.029943 0.903752
-91.517095 57.956694 11.941927 0.832705
-87.554247 57.956694 12.120861 0.714179
-83.591400 57.956694 12.059901 0.791200
-79.628552 57.956694 12.182368 0.355541
-75.665704 57.956694 12.172821 0.209816
-71.702856 57.956694 12.256516 0.290576
-67.740008 57.956694 12.181862 0.024630
-63.777160 57.956694 11.919925 -0.154052
-59.814312 57.956694 11.965579 -0.137925
-55.851464 57.956694 11.793746 -0.317862
-51.888616 57.956694 11.800188 -0.293997
-47.925768 57.956694 11.832709 -0.296427
-43.962920 57.956694 11.728250 -0.286121
-40.000072 57.956694 11.830832 -0.426879
-36.037224 57.956694 11.438494 -0.464937
-32.074376 57.956694 11.532454 -0.485784
-28.111528 57.956694 11.465743 -0.590633
-24.148680 57.956694 11.347770 -0.467137
-20.185832 57.956694 11.185630 -0.398079
-16.222984 57.956694 11.148024 -0.499839
-12.260136 57.956694 0.000000 0.000000
-8.297289 57.956694 0.000000 0.000000
-4.334441 57.956694 10.923123 -0.450825
-0.371593 57.956694 11.010240 -0.444366
3.591255 57.956694 11.051527 -0.223890
7.554103 57.956694 10.926908 -0.403616
11.516951 57.956694 10.910658 -0.293822
15.479799 57.956694 10.850484 -0.238314
19.442647 57.956694 10.888470 -0.378983
23.405495 57.956694 10.810276 -0.322057
27.368343 57.956694 11.087015 -0.165176
31.331191 57.956694 10.824138 -0.242075
35.294039 57.956694 10.978656 -0.290030
39.256887 57.956694 10.987381 -0.050825
43.219735 57.956694 10.862099 0.120841
47.182583 57.956694 10.890482 -0.347177
51.145431 57.956694 10.986643 -0.026201
55.108279 57.956694 10.983570 0.034627
59.071127 57.956694 11.017600 -0.139273
63.033975 57.956694 11.053301 -0.064628
66.996822 57.956694 10.731548 -0.364959
-131.145575 53.993846 10.975964 0.573267
-127.182727 53.993846 -10.430714 14.934029
-123.219879 53.993846 10.884422 1.213945
-119.257031 53.993846 10.782438 1.200813
-115.294183 53.993846 11.181096 1.146409
-111.331335 53.993846 0.000000 0.000000
-107.368487 53.993846 0.000000 0.000000
-103.405639 53.993846 0.000000 0.000000
-99.442791 53.993846 0.000000 0.000000
-95.479943 53.993846 11.992436 0.619086
-91.517095 53.993846 12.210676 0.900285
-87.554247 53.993846 12.379642 0.609969
-83.591400 53.993846 12.324543 0.482301
-79.628552 53.993846 12.318568 0.466962
-75.665704 53.993846 12.348200 0.085530
-71.702856 53.993846 12.196080 0.022736
-67.740008 53.993846 12.080663 -0.040365
-63.777160 53.993846 12.123144 -0.113686
-59.814312 53.993846 11.955883 -0.151775
-55.851464 53.993846 11.924803 -0.395160
-51.888616 53.993846 12.099978 -0.255561
-47.925768 53.993846 11.820037 -0.354376
-43.962920 53.993846 11.761545 0.044359
-40.000072 53.993846 11.580642 -0.381095
-36.037224 53.993846 11.605147 -0.547009
-32.074376 53.993846 11.759424 -0.447094
-28.111528 53.993846 11.334366 -0.491065
-24.148680 53.993846 11.550702 -0.563371
-20.185832 53.993846 11.526130 -0.631243
-16.222984 53.993846 11.105512 -0.529335
-12.260136 53.993846 11.057895 -0.662827
-8.297289 53.993846 0.000000 0.000000
-4.334441 53.993846 10.685440 -0.558700
-0.371593 53.993846 10.841730 -0.449852
3.591255 53.993846 10.936939 -0.469204
7.554103 53.993846 10.889576 -0.129521
11.516951 53.993846 10.636189 -0.312686
15.479799 53.993846 10.812387 -0.348215
19.442647 53.993846 10.809370 -0.337511
23.405495 53.993846 10.842212 -0.064328
27.368343 53.993846 10.864220 -0.052969
31.331191 53.993846 10.827199 -0.146598
35.294039 53.993846 10.820879 -0.409133
39.256887 53.993846 10.886539 -0.069058
43.219735 53.993846 10.950109 -0.160665
47.182583 53.993846 10.999815 -0.076489
51.145431 53.993846 10.907568 -0.060555
55.108279 53.993846 10.952073 -0.059966
59.071127 53.993846 10.907301 -0.119972
63.033975 53.993846 10.944631 -0.196831
66.996822 53.993846 11.061645 -0.278461
-131.145575 50.030998 -1.600663 9.941604
-127.182727 50.030998 -12.548481 3.389260
-123.219879 50.030998 10.723290 0.417088
-119.257031 50.030998 10.711112 0.699773
-115.294183 50.030998 10.741124 1.223464
-111.331335 50.030998 0.000000 0.000000
-107.368487 50.030998 0.000000 0.000000
-103.405639 50.030998 0.000000 0.000000
-99.442791 50.030998 0.000000 0.000000
-95.479943 50.030998 12.126776 1.305755
-91.517095 50.030998 12.265073 0.936943
-87.554247 50.030998 12.461142 0.666648
-83.591400 50.030998 12.438338 0.448801
-79.628552 50.030998 12.500093 0.405643
-75.665704 50.030998 12.304379 0.333217
-71.702856 50.030998 12.336315 0.134671
-67.740008 50.030998 12.433990 -0.127979
-63.777160 50.030998 12.179247 0.083082
-59.814312 50.030998 12.051463 -0.121300
-55.851464 50.030998 12.063963 -0.415422
-51.888616 50.030998 11.966169 -0.399483
-47.925768 50.030998 11.857477 -0.408039
-43.962920 50.030998 11.733174 -0.614872
-40.000072 50.030998 11.921351 -0.654016
-36.037224 50.030998 11.223466 -0.561870
-32.074376 50.030998 11.799050 -0.626486
-28.111528 50.030998 11.448520 -0.634025
-24.148680 50.030998 11.510275 -0.647686
-20.185832 50.030998 11.292397 -0.866867
-16.222984 50.030998 11.030801 -0.584004
-12.260136 50.030998 11.125454 -0.733528
-8.297289 50.030998 0.000000 0.000000
-4.334441 50.030998 10.757528 -0.464410
-0.371593 50.030998 10.939636 -0.454341
3.591255 50.030998 10.846539 -0.430251
7.554103 50.030998 10.842566 -0.257721
11.516951 50.030998 10.774055 -0.246323
15.479799 50.030998 10.818288 -0.225127
19.442647 50.030998 10.715397 -0.128052
23.405495 50.030998 10.822084 -0.144661
27.368343 50.030998 10.993821 0.024340
31.331191 50.030998 11.010693 -0.284184
35.294039 50.030998 10.966397 -0.045572
39.256887 50.030998 10.824807 0.134265
43.219735 50.030998 10.872969 -0.485927
47.182583 50.030998 10.809247 0.248046
51.145431 50.030998 10.927812 0.080492
55.108279 50.030998 11.018596 -0.210325
59.071127 50.030998 10.999247 -0.147801
63.033975 50.030998 11.009381 0.110194
66.996822 50.030998 10.720917 -0.029029
-131.145575 46.068150 -15.343084 15.120301
-127.182727 46.068150 11.264635 0.161914
-123.219879 46.068150 -16.265949 -18.214331
-119.257031 46.068150 10.593051 0.842709
-115.294183 46.068150 10.648682 1.409387
-111.331335 46.068150 10.656301 1.378739
-107.368487 46.068150 0.000000 0.000000
-103.405639 46.068150 0.000000 0.000000
-99.442791 46.068150 0.000000 0.000000
-95.479943 46.068150 12.458794 1.411508
-91.517095 46.068150 12.858016 1.203557
-87.554247 46.068150 12.373626 0.744992
-83.591400 46.068150 12.908385 0.715299
-79.628552 46.068150 12.625380 0.368267
-75.665704 46.068150 12.704841 0.075696
-71.702856 46.068150 12.349740 0.046171
-67.740008 46.068150 12.219575 -0.199881
-63.777160 46.068150 12.321726 -0.203818
-59.814312 46.068150 12.163260 -0.258524
-55.851464 46.068150 12.042654 -0.294393
-51.888616 46.068150 11.991532 -0.522788
-47.925768 46.068150 12.126224 -0.345640
-43.962920 46.068150 11.998525 -0.547984
-40.000072 46.068150 11.721967 -0.508256
-36.037224 46.068150 11.545744 -0.657732
-32.074376 46.068150 11.903786 -0.777468
-28.111528 46.068150 11.450424 -0.771176
-24.148680 46.068150 11.527935 -0.789721
-20.185832 46.068150 11.440238 -0.691504
-16.222984 46.068150 11.215836 -0.889952
-12.260136 46.068150 10.958234 -0.930075
-8.297289 46.068150 0.000000 0.000000
-4.334441 46.068150 10.755217 -0.604998
-0.371593 46.068150 10.590631 -0.465262
3.591255 46.068150 10.771435 -0.101069
7.554103 46.068150 10.869301 -0.456434
11.516951 46.068150 10.653987 -0.223200
15.479799 46.068150 10.560429 -0.383135
19.442647 46.068150 10.473500 -0.035332
23.405495 46.068150 10.941767 -0.175159
27.368343 46.068150 11.235414 0.085294
31.331191 46.068150 11.143424 -0.423937
35.294039 46.068150 10.651620 -0.276991
39.256887 46.068150 10.563393 -0.191966
43.219735 46.068150 10.740435 0.068209
47.182583 46.068150 10.873967 0.118084
51.145431 46.068150 10.562236 0.408979
55.108279 46.068150 10.844277 -0.207225
59.071127 46.068150 10.674558 0.162961
63.033975 46.068150 10.584880 0.303913
66.996822 46.068150 9.794314 0.052904
-131.145575 42.105302 -14.391916 10.404098
-127.182727 42.105302 10.392461 0.982505
-123.219879 42.105302 10.415999 1.008367
-119.257031 42.105302 10.678882 1.430568
-115.294183 42.105302 10.311087 1.274281
-111.331335 42.105302 10.246193 1.976507
-107.368487 42.105302 0.000000 0.000000
-103.405639 42.105302 0.000000 0.000000
-99.442791 42.105302 12.976682 2.056563
-95.479943 42.105302 12.861942 1.282097
-91.517095 42.105302 13.013686 1.148987
-87.554247 42.105302 13.044564 0.895956
-83.591400 42.105302 12.724877 0.585893