TITLE = "B00008"
VARIABLES = "position", "position(2)", "Vx", "Vy"
ZONE T="Frame 0", I=51, J=39
-131.145575 97.585173 11.517537 0.485621
-127.182727 97.585173 11.518904 0.015379
-123.219879 97.585173 11.478623 0.483339
-119.257031 97.585173 11.105032 0.274724
-115.294183 97.585173 11.171154 0.599277
-111.331335 97.585173 0.000000 0.000000
-107.368487 97.585173 0.000000 0.000000
-103.405639 97.585173 0.000000 0.000000
-99.442791 97.585173 0.000000 0.000000
-95.479943 97.585173 0.000000 0.000000
-91.517095 97.585173 0.000000 0.000000
-87.554247 97.585173 11.213268 0.403501
-83.591400 97.585173 11.518250 0.261623
-79.628552 97.585173 11.416305 0.333301
-75.665704 97.585173 11.181784 0.528774
-71.702856 97.585173 11.542275 0.326865
-67.740008 97.585173 11.440645 0.388429
-63.777160 97.585173 11.581614 0.202131
-59.814312 97.585173 11.359743 0.203456
-55.851464 97.585173 11.849080 0.232100
-51.888616 97.585173 11.366360 0.092068
-47.925768 97.585173 11.539427 0.055414
-43.962920 97.585173 11.329122 0.136458
-40.000072 97.585173 11.299083 -0.189917
-36.037224 97.585173 11.211297 0.056472
-32.074376 97.585173 11.312184 0.020455
-28.111528 97.585173 11.477689 -0.101481
-24.148680 97.585173 11.258658 0.009552
-20.185832 97.585173 11.245625 0.045534
-16.222984 97.585173 11.142147 -0.207159
-12.260136 97.585173 0.000000 0.000000
-8.297289 97.585173 0.000000 0.000000
-4.334441 97.585173 0.000000 0.000000
-0.371593 97.585173 11.191571 -0.126575
3.591255 97.585173 11.080134 0.176289
7.554103 97.585173 11.065490 -0.325878
11.516951 97.585173 11.277318 -0.079508
15.479799 97.585173 11.177667 -0.370714
19.442647 97.585173 11.167175 -0.001121
23.405495 97.585173 11.101462 0.028275
27.368343 97.585173 11.068141 -0.020886
31.331191 97.585173 11.037446 -0.015765
35.294039 97.585173 11.209935 -0.134259
39.256887 97.585173 11.044120 0.082204
43.219735 97.585173 11.126423 -0.038512
47.182583 97.585173 10.996616 0.055592
51.145431 97.585173 10.955108 -0.022786
55.108279 97.585173 11.002510 -0.048198
59.071127 97.585173 10.898158 -0.088179
63.033975 97.585173 10.890906 0.232626
66.996822 97.585173 11.082749 0.107793
-131.145575 93.622325 -9.876036 -1.665235
-127.182727 93.622325 11.034397 0.333695
-123.219879 93.622325 11.208983 0.449389
-119.257031 93.622325 11.376883 0.469541
-115.294183 93.622325 11.054276 0.597897
-111.331335 93.622325 0.000000 0.000000
-107.368487 93.622325 0.000000 0.000000
-103.405639 93.622325 0.000000 0.000000
-99.442791 93.622325 0.000000 0.000000
-95.479943 93.622325 0.000000 0.000000
-91.517095 93.622325 0.000000 0.000000
-87.554247 93.622325 11.505177 0.351192
-83.591400 93.622325 11.471883 0.347951
-79.628552 93.622325 11.537350 0.249278
-75.665704 93.622325 11.477556 0.283529
-71.702856 93.622325 11.497597 0.187460
-67.740008 93.622325 11.356333 0.269940
-63.777160 93.622325 11.530654 0.132727
-59.814312 93.622325 11.384591 0.150840
-55.851464 93.622325 11.625376 -0.025530
-51.888616 93.622325 11.458633 0.019776
-47.925768 93.622325 11.271302 -0.066038
-43.962920 93.622325 11.514949 -0.003253
-40.000072 93.622325 11.454073 -0.090506
-36.037224 93.622325 11.540702 -0.156439
-32.074376 93.622325 11.269200 -0.064451
-28.111528 93.622325 11.182909 -0.056368
-24.148680 93.622325 11.299449 -0.134064
-20.185832 93.622325 11.314939 -0.202710
-16.222984 93.622325 11.361551 -0.076253
-12.260136 93.622325 0.000000 0.000000
-8.297289 93.622325 0.000000 0.000000
-4.334441 93.622325 0.000000 0.000000
-0.371593 93.622325 11.104579 -0.090565
3.591255 93.622325 11.051604 -0.290366
7.554103 93.622325 11.244862 -0.263522
11.516951 93.622325 10.862337 -0.016649
15.479799 93.622325 10.831905 0.073182
19.442647 93.622325 11.125331 -0.102763
23.405495 93.622325 11.059288 -0.114971
27.368343 93.622325 11.164680 0.121365
31.331191 93.622325 11.056760 0.153572
35.294039 93.622325 11.234809 0.162447
39.256887 93.622325 10.952982 0.024792
43.219735 93.622325 11.041842 -0.120508
47.182583 93.622325 10.889482 -0.005818
51.145431 93.622325 11.089529 0.088226
55.108279 93.622325 10.984236 -0.104956
59.071127 93.622325 10.890692 -0.045027
63.033975 93.622325 11.136666 0.000722
66.996822 93.622325 10.950427 0.104868
-131.145575 89.659477 11.137676 0.345019
-127.182727 89.659477 11.677656 0.598012
-123.219879 89.659477 11.436635 0.762940
-119.257031 89.659477 11.451436 0.454851
-115.294183 89.659477 11.236995 0.344338
-111.331335 89.659477 0.000000 0.000000
-107.368487 89.659477 0.000000 0.000000
-103.405639 89.659477 0.000000 0.000000
-99.442791 89.659477 0.000000 0.000000
-95.479943 89.659477 0.000000 0.000000
-91.517095 89.659477 0.000000 0.000000
-87.554247 89.659477 11.716908 0.522145
-83.591400 89.659477 11.736951 0.611726
-79.628552 89.659477 11.533493 0.115602
-75.665704 89.659477 11.556650 0.347437
-71.702856 89.659477 11.449552 0.445904
-67.740008 89.659477 11.596255 0.160220
-63.777160 89.659477 11.465775 0.182782
-59.814312 89.659477 11.430223 0.077280
-55.851464 89.659477 11.646511 0.153550
-51.888616 89.659477 11.672761 -0.026184
-47.925768 89.659477 11.638109 0.051184
-43.962920 89.659477 11.488988 0.121236
-40.000072 89.659477 11.482015 0.123924
-36.037224 89.659477 11.287152 -0.052118
-32.074376 89.659477 11.305537 -0.144383
-28.111528 89.659477 11.285836 0.029874
-24.148680 89.659477 11.248368 -0.098772
-20.185832 89.659477 11.376316 -0.160675
-16.222984 89.659477 11.175705 -0.017144
-12.260136 89.659477 0.000000 0.000000
-8.297289 89.659477 0.000000 0.000000
-4.334441 89.659477 0.000000 0.000000
-0.371593 89.659477 11.154982 -0.158701
3.591255 89.659477 11.165129 0.133766
7.554103 89.659477 11.073092 -0.156609
11.516951 89.659477 10.958901 -0.129897
15.479799 89.659477 11.144808 0.068597
19.442647 89.659477 11.026904 -0.021568
23.405495 89.659477 10.984414 -0.077274
27.368343 89.659477 11.178139 0.108711
31.331191 89.659477 11.132612 0.087642
35.294039 89.659477 11.018348 0.064188
39.256887 89.659477 10.900017 -0.070165
43.219735 89.659477 10.928629 -0.020891
47.182583 89.659477 10.916811 -0.126648
51.145431 89.659477 10.981020 0.298655
55.108279 89.659477 11.062339 -0.118656
59.071127 89.659477 11.107365 0.035745
63.033975 89.659477 11.070625 0.105070
66.996822 89.659477 11.085275 0.157367
-131.145575 85.696629 -11.134124 14.921190
-127.182727 85.696629 11.178170 0.757578
-123.219879 85.696629 11.380236 0.372698
-119.257031 85.696629 11.011312 0.384536
-115.294183 85.696629 11.271601 0.429542
-111.331335 85.696629 0.000000 0.000000
-107.368487 85.696629 0.000000 0.000000
-103.405639 85.696629 0.000000 0.000000
-99.442791 85.696629 0.000000 0.000000
-95.479943 85.696629 0.000000 0.000000
-91.517095 85.696629 0.000000 0.000000
-87.554247 85.696629 11.633561 0.478963
-83.591400 85.696629 11.550432 0.337496
-79.628552 85.696629 11.788133 0.368518
-75.665704 85.696629 11.815173 0.375467
-71.702856 85.696629 11.732673 0.029229
-67.740008 85.696629 11.219173 0.278684
-63.777160 85.696629 11.491405 0.214579
-59.814312 85.696629 11.587923 0.286699
-55.851464 85.696629 11.405533 0.139825
-51.888616 85.696629 11.549072 0.005663
-47.925768 85.696629 11.556511 0.083881
-43.962920 85.696629 11.490923 0.003558
-40.000072 85.696629 11.420084 -0.083817
-36.037224 85.696629 11.349850 -0.120475
-32.074376 85.696629 11.414738 -0.114903
-28.111528 85.696629 11.286655 -0.130648
-24.148680 85.696629 11.280987 -0.175105
-20.185832 85.696629 11.409023 0.022964
-16.222984 85.696629 11.393434 -0.127990
-12.260136 85.696629 0.000000 0.000000
-8.297289 85.696629 0.000000 0.000000
-4.334441 85.696629 0.000000 0.000000
-0.371593 85.696629 11.183022 -0.292784
3.591255 85.696629 11.198701 0.009455
7.554103 85.696629 11.174034 0.030768
11.516951 85.696629 10.973394 0.009990
15.479799 85.696629 11.167999 0.100954
19.442647 85.696629 11.141330 -0.100546
23.405495 85.696629 11.033257 -0.104300
27.368343 85.696629 11.268523 -0.188956
31.331191 85.696629 11.050539 -0.009601
35.294039 85.696629 10.997402 0.108769
39.256887 85.696629 11.182972 0.036005
43.219735 85.696629 11.071484 -0.035514
47.182583 85.696629 11.130692 0.000317
51.145431 85.696629 10.947703 0.179638
55.108279 85.696629 10.985148 -0.059402
59.071127 85.696629 11.094598 -0.065891
63.033975 85.696629 10.944080 -0.056701
66.996822 85.696629 10.824328 0.104749
-131.145575 81.733781 2.648321 15.260134
-127.182727 81.733781 10.626448 0.229919
-123.219879 81.733781 11.119871 0.636750
-119.257031 81.733781 11.006641 0.563327
-115.294183 81.733781 11.562611 0.538989
-111.331335 81.733781 0.000000 0.000000
-107.368487 81.733781 0.000000 0.000000
-103.405639 81.733781 0.000000 0.000000
-99.442791 81.733781 0.000000 0.000000
-95.479943 81.733781 0.000000 0.000000
-91.517095 81.733781 0.000000 0.000000
-87.554247 81.733781 11.553734 0.491431
-83.591400 81.733781 11.678472 0.432063
-79.628552 81.733781 11.495354 0.264035
-75.665704 81.733781 11.668121 0.401535
-71.702856 81.733781 11.541944 0.127811
-67.740008 81.733781 11.595641 0.082894
-63.777160 81.733781 11.499662 0.203587
-59.814312 81.733781 11.690187 0.195492
-55.851464 81.733781 11.543402 0.084051
-51.888616 81.733781 11.450205 0.035315
-47.925768 81.733781 11.453543 -0.070173
-43.962920 81.733781 11.389749 0.055261
-40.000072 81.733781 11.394178 -0.202812
-36.037224 81.733781 11.467098 -0.161386
-32.074376 81.733781 11.255578 -0.227964
-28.111528 81.733781 11.258499 0.014330
-24.148680 81.733781 11.466587 -0.253243
-20.185832 81.733781 11.151964 -0.261673
-16.222984 81.733781 11.358127 -0.218259
-12.260136 81.733781 0.000000 0.000000
-8.297289 81.733781 0.000000 0.000000
-4.334441 81.733781 0.000000 0.000000
-0.371593 81.733781 11.082819 -0.106023
3.591255 81.733781 10.995175 -0.109177
7.554103 81.733781 11.023417 -0.267109
11.516951 81.733781 11.108100 -0.197070
15.479799 81.733781 10.949226 -0.107538
19.442647 81.733781 10.897182 -0.060499
23.405495 81.733781 10.993932 0.127245
27.368343 81.733781 10.931129 0.042920
31.331191 81.733781 11.025323 -0.204516
35.294039 81.733781 11.027266 0.223884
39.256887 81.733781 11.073404 -0.261399
43.219735 81.733781 11.020975 0.063970
47.182583 81.733781 10.997506 0.054110
51.145431 81.733781 11.077143 0.061601
55.108279 81.733781 10.951218 -0.260547
59.071127 81.733781 10.806119 -0.007740
63.033975 81.733781 10.975476 0.087335
66.996822 81.733781 11.019500 -0.022153
-131.145575 77.770933 11.858208 0.705080
-127.182727 77.770933 10.912203 0.662857
-123.219879 77.770933 10.964614 0.586773
-119.257031 77.770933 11.139024 0.829408
-115.294183 77.770933 11.271304 0.706885
-111.331335 77.770933 0.000000 0.000000
-107.368487 77.770933 0.000000 0.000000
-103.405639 77.770933 0.000000 0.000000
-99.442791 77.770933 0.000000 0.000000
-95.479943 77.770933 0.000000 0.000000
-91.517095 77.770933 11.520897 0.467362
-87.554247 77.770933 11.533122 0.502907
-83.591400 77.770933 11.698103 0.480087
-79.628552 77.770933 11.851310 0.399599
-75.665704 77.770933 11.485377 0.278545
-71.702856 77.770933 11.551259 0.302435
-67.740008 77.770933 11.535930 0.281753
-63.777160 77.770933 11.815884 0.180337
-59.814312 77.770933 11.501087 0.004278
-55.851464 77.770933 11.590734 -0.065645
-51.888616 77.770933 11.611156 -0.071995
-47.925768 77.770933 11.551379 -0.132639
-43.962920 77.770933 11.653159 -0.170082
-40.000072 77.770933 11.424931 -0.124470
-36.037224 77.770933 11.481666 -0.291804
-32.074376 77.770933 11.310491 -0.085110
-28.111528 77.770933 11.429708 -0.153167
-24.148680 77.770933 11.368006 -0.133138
-20.185832 77.770933 11.119498 -0.254121
-16.222984 77.770933 11.262729 -0.321897
-12.260136 77.770933 0.000000 0.000000
-8.297289 77.770933 0.000000 0.000000
-4.334441 77.770933 0.000000 0.000000
-0.371593 77.770933 10.899660 -0.299504
3.591255 77.770933 10.988860 -0.228776
7.554103 77.770933 11.097919 0.007180
11.516951 77.770933 11.035634 -0.228751
15.479799 77.770933 11.091000 -0.203182
19.442647 77.770933 11.063761 -0.043843
23.405495 77.770933 11.077427 -0.130518
27.368343 77.770933 11.001418 0.109562
31.331191 77.770933 10.957742 -0.061160
35.294039 77.770933 11.054436 -0.231396
39.256887 77.770933 11.044055 0.041808
43.219735 77.770933 10.960887 0.199647
47.182583 77.770933 10.889043 -0.201525
51.145431 77.770933 10.958706 0.143457
55.108279 77.770933 11.006330 -0.012621
59.071127 77.770933 10.941565 -0.110555
63.033975 77.770933 10.835442 0.129435
66.996822 77.770933 10.999452 -0.036004
-131.145575 73.808085 12.604958 10.397223
-127.182727 73.808085 10.787955 0.787463
-123.219879 73.808085 11.107625 0.699882
-119.257031 73.808085 11.442641 0.692304
-115.294183 73.808085 11.133116 0.624251
-111.331335 73.808085 0.000000 0.000000
-107.368487 73.808085 0.000000 0.000000
-103.405639 73.808085 0.000000 0.000000
-99.442791 73.808085 0.000000 0.000000
-95.479943 73.808085 0.000000 0.000000
-91.517095 73.808085 11.721983 0.541617
-87.554247 73.808085 11.614703 0.596640
-83.591400 73.808085 11.843664 0.448914
-79.628552 73.808085 11.638690 0.327489
-75.665704 73.808085 11.857887 0.277466
-71.702856 73.808085 11.676826 0.193887
-67.740008 73.808085 11.721981 0.139936
-63.777160 73.808085 11.733239 0.115452
-59.814312 73.808085 11.800769 -0.061167
-55.851464 73.808085 11.742807 -0.179891
-51.888616 73.808085 11.634166 -0.096140
-47.925768 73.808085 11.749814 0.127857
-43.962920 73.808085 11.560632 -0.351285
-40.000072 73.808085 11.636169 -0.089590
-36.037224 73.808085 11.422923 -0.190809
-32.074376 73.808085 11.522902 -0.267064
-28.111528 73.808085 11.506599 -0.251550
-24.148680 73.808085 11.366451 -0.356218
-20.185832 73.808085 11.217933 -0.345786
-16.222984 73.808085 11.079661 -0.279784
-12.260136 73.808085 0.000000 0.000000
-8.297289 73.808085 0.000000 0.000000
-4.334441 73.808085 0.000000 0.000000
-0.371593 73.808085 11.008815 -0.087592
3.591255 73.808085 11.067408 -0.178821
7.554103 73.808085 10.999820 -0.192076
11.516951 73.808085 10.984219 -0.252751
15.479799 73.808085 10.969383 -0.233414
19.442647 73.808085 10.803383 -0.048475
23.405495 73.808085 10.989350 -0.131013
27.368343 73.808085 10.988830 -0.172796
31.331191 73.808085 10.913596 -0.090608
35.294039 73.808085 10.912367 -0.048399
39.256887 73.808085 10.928214 0.114095
43.219735 73.808085 10.825126 -0.134806
47.182583 73.808085 10.816358 0.103157
51.145431 73.808085 11.006785 -0.150019
55.108279 73.808085 10.967062 0.001490
59.071127 73.808085 10.986949 -0.079640
63.033975 73.808085 10.905182 0.143846
66.996822 73.808085 10.714775 -0.125978
-131.145575 69.845237 -8.861302 13.692155
-127.182727 69.845237 -9.905369 6.040831
-123.219879 69.845237 11.516443 0.740100
-119.257031 69.845237 11.012206 0.596748
-115.294183 69.845237 11.137765 0.759259
-111.331335 69.845237 0.000000 0.000000
-107.368487 69.845237 0.000000 0.000000
-103.405639 69.845237 0.000000 0.000000
-99.442791 69.845237 0.000000 0.000000
-95.479943 69.845237 0.000000 0.000000
-91.517095 69.845237 11.569704 0.532469
-87.554247 69.845237 11.702825 0.573566
-83.591400 69.845237 11.652863 0.465002
-79.628552 69.845237 11.827937 0.197598
-75.665704 69.845237 11.635829 -0.172512
-71.702856 69.845237 11.863048 0.250807
-67.740008 69.845237 11.805653 -0.069179
-63.777160 69.845237 11.763259 -0.033303
-59.814312 69.845237 11.648982 0.005986
-55.851464 69.845237 11.655005 0.174918
-51.888616 69.845237 11.692856 0.014958
-47.925768 69.845237 11.622725 -0.036415
-43.962920 69.845237 11.538166 -0.262232
-40.000072 69.845237 11.593580 -0.019868
-36.037224 69.845237 11.447375 -0.133424
-32.074376 69.845237 11.465779 -0.330757
-28.111528 69.845237 11.336512 -0.283497
-24.148680 69.845237 11.289461 -0.172993
-20.185832 69.845237 11.404774 -0.377792
-16.222984 69.845237 11.070589 -0.346577
-12.260136 69.845237 0.000000 0.000000
-8.297289 69.845237 0.000000 0.000000
-4.334441 69.845237 0.000000 0.000000
-0.371593 69.845237 11.053961 -0.120588
3.591255 69.845237 10.989100 -0.189386
7.554103 69.845237 10.934922 -0.283323
11.516951 69.845237 11.066090 -0.103868
15.479799 69.845237 10.967445 -0.271018
19.442647 69.845237 11.016620 -0.080403
23.405495 69.845237 11.002042 -0.004289
27.368343 69.845237 10.858334 -0.043539
31.331191 69.845237 11.020032 -0.110835
35.294039 69.845237 11.037970 0.006755
39.256887 69.845237 11.023581 0.154663
43.219735 69.845237 11.006203 0.045374
47.182583 69.845237 11.016754 -0.221026
51.145431 69.845237 10.964141 0.015769
55.108279 69.845237 11.093752 -0.133277
59.071127 69.845237 10.856249 -0.161360
63.033975 69.845237 10.874196 -0.004034
66.996822 69.845237 10.959255 -0.302453
-131.145575 65.882389 16.351540 5.829025
-127.182727 65.882389 11.157158 0.795321
-123.219879 65.882389 11.218105 0.651075
-119.257031 65.882389 11.119028 0.890990
-115.294183 65.882389 11.543970 0.777515
-111.331335 65.882389 0.000000 0.000000
-107.368487 65.882389 0.000000 0.000000
-103.405639 65.882389 0.000000 0.000000
-99.442791 65.882389 0.000000 0.000000
-95.479943 65.882389 0.000000 0.000000
-91.517095 65.882389 11.819538 0.527717
-87.554247 65.882389 12.038450 0.696240
-83.591400 65.882389 11.763049 0.496673
-79.628552 65.882389 11.749588 0.286857
-75.665704 65.882389 11.752316 0.356737
-71.702856 65.882389 11.875581 0.183894
-67.740008 65.882389 11.758014 0.041101
-63.777160 65.882389 12.018014 0.181983
-59.814312 65.882389 11.837814 -0.042905
-55.851464 65.882389 11.844657 -0.287672
-51.888616 65.882389 11.875723 -0.148092
-47.925768 65.882389 11.793319 -0.303282
-43.962920 65.882389 11.779704 -0.216813
-40.000072 65.882389 11.437806 -0.392982
-36.037224 65.882389 11.592378 -0.357369
-32.074376 65.882389 11.459951 -0.337478
-28.111528 65.882389 11.591129 -0.313537
-24.148680 65.882389 11.293069 -0.424800
-20.185832 65.882389 11.387574 -0.398243
-16.222984 65.882389 11.148385 -0.278897
-12.260136 65.882389 0.000000 0.000000
-8.297289 65.882389 0.000000 0.000000
-4.334441 65.882389 10.986204 -0.336032
-0.371593 65.882389 11.060884 -0.443366
3.591255 65.882389 10.978523 -0.273360
7.554103 65.882389 10.920014 -0.340101
11.516951 65.882389 10.985816 -0.204468
15.479799 65.882389 10.967527 -0.334575
19.442647 65.882389 10.800179 -0.245244
23.405495 65.882389 11.034739 -0.163789
27.368343 65.882389 10.810978 -0.004660
31.331191 65.882389 10.944654 -0.162243
35.294039 65.882389 10.930950 -0.046271
39.256887 65.882389 11.026870 -0.138645
43.219735 65.882389 10.996479 0.083735
47.182583 65.882389 10.954368 -0.188488
51.145431 65.882389 10.980695 0.350165
55.108279 65.882389 11.049649 0.089220
59.071127 65.882389 10.936850 -0.132721
63.033975 65.882389 10.850421 0.045469
66.996822 65.882389 11.015706 0.058741
-131.145575 61.919541 6.224703 -17.912924
-127.182727 61.919541 10.869170 0.957288
-123.219879 61.919541 11.116199 0.864992
-119.257031 61.919541 11.118929 0.970229
-115.294183 61.919541 11.138385 0.890946
-111.331335 61.919541 0.000000 0.000000
-107.368487 61.919541 0.000000 0.000000
-103.405639 61.919541 0.000000 0.000000
-99.442791 61.919541 0.000000 0.000000
-95.479943 61.919541 0.000000 0.000000
-91.517095 61.919541 11.868495 0.675649
-87.554247 61.919541 11.857526 0.804729
-83.591400 61.919541 12.031396 0.387079
-79.628552 61.919541 12.023777 0.327061
-75.665704 61.919541 12.143910 0.433958
-71.702856 61.919541 12.082973 0.195569
-67.740008 61.919541 11.938450 0.128468
-63.777160 61.919541 11.922496 -0.003283
-59.814312 61.919541 11.806674 0.005711
-55.851464 61.919541 12.040890 -0.212742
-51.888616 61.919541 11.744184 0.003136
-47.925768 61.919541 11.747840 -0.247446
-43.962920 61.919541 11.680400 -0.336600
-40.000072 61.919541 11.654316 -0.384571
-36.037224 61.919541 11.433272 -0.283670
-32.074376 61.919541 11.228853 -0.402197
-28.111528 61.919541 11.495886 -0.526101
-24.148680 61.919541 11.130520 -0.373632
-20.185832 61.919541 11.513013 -0.497715
-16.222984 61.919541 11.005190 -0.457715
-12.260136 61.919541 0.000000 0.000000
-8.297289 61.919541 0.000000 0.000000
-4.334441 61.919541 10.913735 -0.334091
-0.371593 61.919541 11.147652 -0.246980
3.591255 61.919541 10.940102 -0.423525
7.554103 61.919541 10.916860 -0.344064
11.516951 61.919541 10.835490 -0.310963
15.479799 61.919541 10.761040 -0.475772
19.442647 61.919541 10.963490 -0.276264
23.405495 61.919541 11.061033 -0.172572
27.368343 61.919541 11.016622 -0.129588
31.331191 61.919541 11.065998 -0.139848
35.294039 61.919541 10.968887 0.072195
39.256887 61.919541 10.860843 -0.249668
43.219735 61.919541 10.990215 -0.247555
47.182583 61.919541 10.722758 -0.005758
51.145431 61.919541 10.741197 0.056418
55.108279 61.919541 10.953534 0.132514
59.071127 61.919541 10.949800 -0.000678
63.033975 61.919541 10.984828 -0.231667
66.996822 61.919541 11.023175 0.003843
-131.145575 57.956694 4.789197 15.964368
-127.182727 57.956694 -15.391470 -14.559491
-123.219879 57.956694 11.634145 0.750526
-119.257031 57.956694 10.923842 1.647075
-115.294183 57.956694 11.061250 1.423071
-111.331335 57.956694 0.000000 0.000000
-107.368487 57.956694 0.000000 0.000000
-103.405639 57.956694 0.000000 0.000000
-99.442791 57.956694 0.000000 0.000000
-95.479943 57.956694 11.841866 0.684407
-91.517095 57.956694 11.989593 0.815243
-87.554247 57.956694 11.999170 0.914686
-83.591400 57.956694 12.043603 0.592388
-79.628552 57.956694 12.197097 0.346489
-75.665704 57.956694 12.051155 0.479297
-71.702856 57.956694 12.143519 0.152577
-67.740008 57.956694 11.941667 -0.002068
-63.777160 57.956694 11.916513 -0.403644
-59.814312 57.956694 11.770949 -0.187254
-55.851464 57.956694 11.841100 -0.225989
-51.888616 57.956694 11.922436 -0.257016
-47.925768 57.956694 11.837258 -0.444223
-43.962920 57.956694 11.893744 -0.346965
-40.000072 57.956694 11.650626 -0.366884
-36.037224 57.956694 11.246593 -0.349437
-32.074376 57.956694 11.474028 -0.454204
-28.111528 57.956694 11.658064 -0.369196
-24.148680 57.956694 11.457534 -0.431657
-20.185832 57.956694 11.227450 -0.452641
-16.222984 57.956694 11.188079 -0.503538
-12.260136 57.956694 0.000000 0.000000
-8.297289 57.956694 0.000000 0.000000
-4.334441 57.956694 10.924753 -0.361226
-0.371593 57.956694 10.799030 -0.292719
3.591255 57.956694 10.759206 -0.369169
7.554103 57.956694 10.798655 -0.423952
11.516951 57.956694 10.793851 -0.105895
15.479799 57.956694 10.804410 -0.423415
19.442647 57.956694 10.798093 -0.194212
23.405495 57.956694 10.810852 -0.199747
27.368343 57.956694 10.855008 0.104318
31.331191 57.956694 10.976434 -0.087236
35.294039 57.956694 10.851747 -0.195498
39.256887 57.956694 10.885726 -0.175544
43.219735 57.956694 10.913399 -0.044172
47.182583 57.956694 11.079879 0.063045
51.145431 57.956694 10.988858 0.003860
55.108279 57.956694 11.030741 0.228990
59.071127 57.956694 11.036925 0.038122
63.033975 57.956694 10.917604 0.069764
66.996822 57.956694 10.851038 0.141303
-131.145575 53.993846 12.954718 2.325150
-127.182727 53.993846 10.489948 0.559005
-123.219879 53.993846 10.992341 0.710894
-119.257031 53.993846 10.861349 0.924891
-115.294183 53.993846 10.996106 1.366067
-111.331335 53.993846 0.000000 0.000000
-107.368487 53.993846 0.000000 0.000000
-103.405639 53.993846 0.000000 0.000000
-99.442791 53.993846 0.000000 0.000000
-95.479943 53.993846 12.118386 0.980982
-91.517095 53.993846 12.168721 0.994969
-87.554247 53.993846 12.272345 0.797405
-83.591400 53.993846 12.164656 0.497064
-79.628552 53.993846 12.341962 0.407978
-75.665704 53.993846 12.168336 0.203862
-71.702856 53.993846 12.243880 0.209580
-67.740008 53.993846 12.223217 -0.084825
-63.777160 53.993846 12.161199 0.031862
-59.814312 53.993846 12.080049 -0.192348
-55.851464 53.993846 11.909789 -0.388757
-51.888616 53.993846 11.937415 -0.187307
-47.925768 53.993846 11.864634 -0.446520
-43.962920 53.993846 11.934952 -0.546164
-40.000072 53.993846 11.623157 -0.578542
-36.037224 53.993846 11.565863 -0.519610
-32.074376 53.993846 11.479123 -0.489334
-28.111528 53.993846 11.440788 -0.579683
-24.148680 53.993846 11.412427 -0.544129
-20.185832 53.993846 11.354865 -0.548067
-16.222984 53.993846 11.189116 -0.632975
-12.260136 53.993846 10.885170 -0.459059
-8.297289 53.993846 0.000000 0.000000
-4.334441 53.993846 10.949976 -0.296628
-0.371593 53.993846 11.062571 -0.390620
3.591255 53.993846 10.984047 -0.281321
7.554103 53.993846 10.771119 -0.322107
11.516951 53.993846 10.783371 -0.342684
15.479799 53.993846 10.742696 -0.208717
19.442647 53.993846 10.872880 -0.131869
23.405495 53.993846 10.877187 -0.239460
27.368343 53.993846 10.865509 -0.049616
31.331191 53.993846 10.906517 -0.270978
35.294039 53.993846 10.881877 -0.317389
39.256887 53.993846 10.924245 -0.133757
43.219735 53.993846 10.813361 0.009483
47.182583 53.993846 10.992349 0.042342
51.145431 53.993846 10.907127 0.022483
55.108279 53.993846 10.674772 0.229996
59.071127 53.993846 11.074450 0.012968
63.033975 53.993846 10.984187 0.331060
66.996822 53.993846 10.787275 0.227193
-131.145575 50.030998 4.775315 13.242909
-127.182727 50.030998 10.561409 1.119295
-123.219879 50.030998 11.112574 0.970939
-119.257031 50.030998 11.025634 0.907994
-115.294183 50.030998 10.710813 0.954354
-111.331335 50.030998 0.000000 0.000000
-107.368487 50.030998 0.000000 0.000000
-103.405639 50.030998 0.000000 0.000000
-99.442791 50.030998 0.000000 0.000000
-95.479943 50.030998 12.125443 1.186069
-91.517095 50.030998 12.396653 0.960753
-87.554247 50.030998 12.556485 0.811088
-83.591400 50.030998 12.843266 0.646385
-79.628552 50.030998 12.464880 0.447765
-75.665704 50.030998 12.300409 0.469711
-71.702856 50.030998 12.336640 0.108240
-67.740008 50.030998 12.330039 -0.046490
-63.777160 50.030998 12.384737 0.106750
-59.814312 50.030998 12.031321 -0.252129
-55.851464 50.030998 11.944398 -0.419313
-51.888616 50.030998 11.876101 -0.481566
-47.925768 50.030998 11.798675 -0.395458
-43.962920 50.030998 11.961058 -0.458693
-40.000072 50.030998 11.822936 -0.458272
-36.037224 50.030998 11.574578 -0.526980
-32.074376 50.030998 11.792577 -0.597856
-28.111528 50.030998 11.588442 -0.503974
-24.148680 50.030998 11.607791 -0.638677
-20.185832 50.030998 11.259010 -0.674554
-16.222984 50.030998 11.351368 -0.729200
-12.260136 50.030998 10.938084 -0.681997
-8.297289 50.030998 0.000000 0.000000
-4.334441 50.030998 10.719986 -0.741207
-0.371593 50.030998 10.848825 -0.394889
3.591255 50.030998 10.743286 -0.544267
7.554103 50.030998 10.756627 -0.500459
11.516951 50.030998 10.746032 -0.227922
15.479799 50.030998 10.769733 -0.356904
19.442647 50.030998 10.695958 -0.198422
23.405495 50.030998 10.828239 -0.350326
27.368343 50.030998 10.877160 -0.074373
31.331191 50.030998 10.950044 -0.066523
35.294039 50.030998 10.870363 -0.051761
39.256887 50.030998 10.926619 0.202880
43.219735 50.030998 10.740635 -0.219731
47.182583 50.030998 10.854953 0.037095
51.145431 50.030998 10.954623 -0.159570
55.108279 50.030998 10.872489 0.167521
59.071127 50.030998 10.893957 -0.331905
63.033975 50.030998 10.536738 0.068024
66.996822 50.030998 10.698942 0.260319
-131.145575 46.068150 4.357121 2.157307
-127.182727 46.068150 5.205138 -1.870701
-123.219879 46.068150 10.501288 0.831434
-119.257031 46.068150 10.494872 1.070718
-115.294183 46.068150 10.602246 1.477866
-111.331335 46.068150 10.610691 1.656652
-107.368487 46.068150 0.000000 0.000000
-103.405639 46.068150 0.000000 0.000000
-99.442791 46.068150 0.000000 0.000000
-95.479943 46.068150 12.305895 1.566940
-91.517095 46.068150 12.465497 0.946648
-87.554247 46.068150 12.288201 0.770031
-83.591400 46.068150 12.735766 0.593523
-79.628552 46.068150 12.735743 0.514169
-75.665704 46.068150 12.550674 0.127572
-71.702856 46.068150 12.464130 0.096332
-67.740008 46.068150 12.308863 -0.077527
-63.777160 46.068150 12.393406 -0.306827
-59.814312 46.068150 12.249503 -0.377985
-55.851464 46.068150 12.211802 -0.498071
-51.888616 46.068150 12.116846 -0.633488
-47.925768 46.068150 11.888208 -0.548830
-43.962920 46.068150 11.751181 -0.613071
-40.000072 46.068150 11.665740 -0.551258
-36.037224 46.068150 11.573040 -0.627658
-32.074376 46.068150 11.523982 -0.702699
-28.111528 46.068150 11.754816 -0.656153
-24.148680 46.068150 11.446785 -0.891700
-20.185832 46.068150 11.257029 -0.641413
-16.222984 46.068150 11.338447 -0.763958
-12.260136 46.068150 11.219410 -0.822453
-8.297289 46.068150 0.000000 0.000000
-4.334441 46.068150 10.943707 -0.852468
-0.371593 46.068150 10.496227 -0.512949
3.591255 46.068150 10.591528 -0.335761
7.554103 46.068150 10.737381 -0.234042
11.516951 46.068150 10.850879 -0.354403
15.479799 46.068150 10.667286 -0.293221
19.442647 46.068150 10.656862 -0.247304
23.405495 46.068150 10.709149 -0.146956
27.368343 46.068150 11.011078 -0.226483
31.331191 46.068150 11.062231 -0.234449
35.294039 46.068150 10.934739 -0.336643
39.256887 46.068150 10.613837 -0.173546
43.219735 46.068150 10.682134 -0.080465
47.182583 46.068150 10.658422 0.571006
51.145431 46.068150 11.121159 -0.208130
55.108279 46.068150 11.057270 -0.112035
59.071127 46.068150 10.866138 -0.261007
63.033975 46.068150 10.394727 0.172941
66.996822 46.068150 10.506155 0.317672
-131.145575 42.105302 -15.603564 -8.488704
-127.182727 42.105302 14.432103 -11.746816
-123.219879 42.105302 10.135571 0.828307
-119.257031 42.105302 10.452742 0.981103
-115.294183 42.105302 10.233920 1.646125
-111.331335 42.105302 10.501416 2.141222
-107.368487 42.105302 0.000000 0.000000
-103.405639 42.105302 0.000000 0.000000
-99.442791 42.105302 12.449521 2.004045
-95.479943 42.105302 12.938053 1.498595
-91.517095 42.105302 12.936636 1.382701
-87.554247 42.105302 12.861972 0.894204
-83.591400 42.105302 13.145818 0.649874
-79.628552 42.105302 13.020963 0.380701