TITLE = "B00009"
VARIABLES = "position", "position(2)", "Vx", "Vy"
ZONE T="Frame 0", I=102, J=78
-132.136287 98.575885 10.427335 0.940302
-130.154863 98.575885 11.187263 0.206576
-128.173439 98.575885 11.490304 0.135878
-126.192015 98.575885 11.258458 0.628150
-124.210591 98.575885 11.451763 0.510010
-122.229167 98.575885 11.304568 0.373059
-120.247743 98.575885 11.148817 0.298687
-118.266319 98.575885 11.072936 0.329937
-116.284895 98.575885 11.318821 0.531281
-114.303471 98.575885 0.000000 0.000000
-112.322047 98.575885 0.000000 0.000000
-110.340623 98.575885 0.000000 0.000000
-108.359199 98.575885 0.000000 0.000000
-106.377775 98.575885 0.000000 0.000000
-104.396351 98.575885 0.000000 0.000000
-102.414927 98.575885 0.000000 0.000000
-100.433503 98.575885 0.000000 0.000000
-98.452079 98.575885 0.000000 0.000000
-96.470655 98.575885 0.000000 0.000000
-94.489231 98.575885 0.000000 0.000000
-92.507807 98.575885 0.000000 0.000000
-90.526383 98.575885 0.000000 0.000000
-88.544959 98.575885 11.346453 0.398642
-86.563536 98.575885 11.400931 0.487091
-84.582112 98.575885 11.472453 0.495074
-82.600688 98.575885 11.420150 0.405959
-80.619264 98.575885 11.293841 0.318507
-78.637840 98.575885 11.291853 0.349385
-76.656416 98.575885 11.341457 0.335519
-74.674992 98.575885 11.425574 0.259884
-72.693568 98.575885 11.527967 0.255354
-70.712144 98.575885 11.484849 0.189987
-68.730720 98.575885 11.337919 0.174768
-66.749296 98.575885 11.320075 0.266654
-64.767872 98.575885 11.382015 0.214299
-62.786448 98.575885 11.358716 0.129967
-60.805024 98.575885 11.444350 0.115166
-58.823600 98.575885 11.467117 0.149880
-56.842176 98.575885 11.402614 0.262029
-54.860752 98.575885 11.333191 0.325223
-52.879328 98.575885 11.504322 0.135804
-50.897904 98.575885 11.410916 0.067741
-48.916480 98.575885 11.434314 0.073357
-46.935056 98.575885 11.463594 -0.003682
-44.953632 98.575885 11.423851 0.132852
-42.972208 98.575885 11.367995 0.190417
-40.990784 98.575885 11.345313 0.063571
-39.009360 98.575885 11.427787 0.043975
-37.027936 98.575885 11.439611 0.072521
-35.046512 98.575885 11.274581 -0.070439
-33.065088 98.575885 11.218740 -0.191559
-31.083664 98.575885 11.317626 -0.140733
-29.102240 98.575885 11.392383 -0.080713
-27.120816 98.575885 11.343875 0.045592
-25.139392 98.575885 11.190269 0.000906
-23.157968 98.575885 11.188327 -0.038208
-21.176544 98.575885 11.242236 -0.050727
-19.195120 98.575885 11.281687 -0.178466
-17.213696 98.575885 11.278946 -0.134590
-15.232272 98.575885 0.000000 0.000000
-13.250848 98.575885 0.000000 0.000000
-11.269424 98.575885 0.000000 0.000000
-9.288001 98.575885 0.000000 0.000000
-7.306577 98.575885 0.000000 0.000000
-5.325153 98.575885 0.000000 0.000000
-3.343729 98.575885 0.000000 0.000000
-1.362305 98.575885 11.128193 -0.112456
0.619119 98.575885 11.109008 -0.133347
2.600543 98.575885 11.172336 -0.112721
4.581967 98.575885 11.230481 0.016825
6.563391 98.575885 11.264184 0.016691
8.544815 98.575885 11.214587 -0.146420
10.526239 98.575885 11.161751 -0.088910
12.507663 98.575885 11.127017 0.002129
14.489087 98.575885 11.123388 0.018806
16.470511 98.575885 11.221042 -0.035779
18.451935 98.575885 11.201905 0.036555
20.433359 98.575885 11.380552 0.022627
22.414783 98.575885 11.449067 -0.063615
24.396207 98.575885 11.220760 0.060355
26.377631 98.575885 11.100768 0.011056
28.359055 98.575885 11.147555 -0.015388
30.340479 98.575885 11.116504 0.031631
32.321903 98.575885 11.071319 0.029932
34.303327 98.575885 11.174226 -0.116264
36.284751 98.575885 11.231234 -0.236907
38.266175 98.575885 11.191970 -0.211638
40.247599 98.575885 11.313324 0.017877
42.229023 98.575885 11.221148 0.123099
44.210447 98.575885 11.173177 0.051782
46.191871 98.575885 11.224124 0.048141
48.173295 98.575885 11.132709 0.062379
50.154719 98.575885 11.069447 0.015681
52.136143 98.575885 11.117853 -0.119578
54.117567 98.575885 11.095639 -0.091733
56.098991 98.575885 11.103922 -0.060590
58.080415 98.575885 11.160635 -0.089498
60.061839 98.575885 11.229581 -0.147703
62.043263 98.575885 11.144082 -0.061444
64.024687 98.575885 11.151601 0.044276
66.006110 98.575885 11.207826 0.043983
67.987534 98.575885 0.000000 0.000000
-132.136287 96.594461 10.454187 0.130481
-130.154863 96.594461 11.180185 0.102336
-128.173439 96.594461 11.705088 0.325217
-126.192015 96.594461 11.489962 0.627376
-124.210591 96.594461 11.384578 0.541092
-122.229167 96.594461 11.408382 0.592279
-120.247743 96.594461 11.120249 0.531799
-118.266319 96.594461 11.033698 0.477132
-116.284895 96.594461 11.240555 0.596319
-114.303471 96.594461 11.518996 0.686594
-112.322047 96.594461 0.000000 0.000000
-110.340623 96.594461 0.000000 0.000000
-108.359199 96.594461 0.000000 0.000000
-106.377775 96.594461 0.000000 0.000000
-104.396351 96.594461 0.000000 0.000000
-102.414927 96.594461 0.000000 0.000000
-100.433503 96.594461 0.000000 0.000000
-98.452079 96.594461 0.000000 0.000000
-96.470655 96.594461 0.000000 0.000000
-94.489231 96.594461 0.000000 0.000000
-92.507807 96.594461 0.000000 0.000000
-90.526383 96.594461 0.000000 0.000000
-88.544959 96.594461 11.319724 0.343121
-86.563536 96.594461 11.365329 0.412980
-84.582112 96.594461 11.391786 0.440106
-82.600688 96.594461 11.345212 0.356858
-80.619264 96.594461 11.374022 0.335668
-78.637840 96.594461 11.503386 0.310120
-76.656416 96.594461 11.459173 0.277389
-74.674992 96.594461 11.415568 0.344709
-72.693568 96.594461 11.496845 0.302518
-70.712144 96.594461 11.508588 0.295812
-68.730720 96.594461 11.411154 0.332209
-66.749296 96.594461 11.387460 0.278272
-64.767872 96.594461 11.374168 0.202499
-62.786448 96.594461 11.416062 0.117291
-60.805024 96.594461 11.512458 0.083056
-58.823600 96.594461 11.541555 0.100419
-56.842176 96.594461 11.456450 0.203121
-54.860752 96.594461 11.433236 0.336226
-52.879328 96.594461 11.487067 0.238347
-50.897904 96.594461 11.434463 0.117120
-48.916480 96.594461 11.372882 0.070081
-46.935056 96.594461 11.456600 -0.028886
-44.953632 96.594461 11.438955 0.066285
-42.972208 96.594461 11.320876 0.105947
-40.990784 96.594461 11.343680 -0.173265
-39.009360 96.594461 11.472987 -0.208193
-37.027936 96.594461 11.387446 0.024053
-35.046512 96.594461 11.316114 -0.030857
-33.065088 96.594461 11.270759 -0.184429
-31.083664 96.594461 11.337870 -0.166530
-29.102240 96.594461 11.309438 -0.096965
-27.120816 96.594461 11.282795 -0.013741
-25.139392 96.594461 11.223077 -0.041748
-23.157968 96.594461 11.201219 -0.034448
-21.176544 96.594461 11.228732 -0.070916
-19.195120 96.594461 11.256914 -0.157653
-17.213696 96.594461 11.280051 -0.154264
-15.232272 96.594461 11.240981 -0.112817
-13.250848 96.594461 0.000000 0.000000
-11.269424 96.594461 0.000000 0.000000
-9.288001 96.594461 0.000000 0.000000
-7.306577 96.594461 0.000000 0.000000
-5.325153 96.594461 0.000000 0.000000
-3.343729 96.594461 0.000000 0.000000
-1.362305 96.594461 11.173076 -0.154974
0.619119 96.594461 11.200491 -0.196320
2.600543 96.594461 11.179222 -0.111494
4.581967 96.594461 11.246968 0.063370
6.563391 96.594461 11.299718 0.014969
8.544815 96.594461 11.310726 -0.184846
10.526239 96.594461 11.278188 -0.095706
12.507663 96.594461 11.227061 -0.067114
14.489087 96.594461 11.127850 -0.086136
16.470511 96.594461 11.128051 0.007850
18.451935 96.594461 11.262046 0.070796
20.433359 96.594461 11.356322 -0.051689
22.414783 96.594461 11.301929 -0.111337
24.396207 96.594461 11.199022 0.059346
26.377631 96.594461 11.190382 0.092904
28.359055 96.594461 11.191003 0.010475
30.340479 96.594461 11.174508 0.006235
32.321903 96.594461 11.108544 -0.026172
34.303327 96.594461 11.103975 -0.212531
36.284751 96.594461 11.132584 -0.237840
38.266175 96.594461 11.186524 -0.137199
40.247599 96.594461 11.201818 0.076907
42.229023 96.594461 11.101829 0.077509
44.210447 96.594461 11.105071 0.065242
46.191871 96.594461 11.156759 0.108528
48.173295 96.594461 11.150563 0.047442
50.154719 96.594461 11.130584 -0.014671
52.136143 96.594461 11.117487 -0.078301
54.117567 96.594461 11.117886 -0.019880
56.098991 96.594461 11.095997 0.001423
58.080415 96.594461 11.085830 -0.045204
60.061839 96.594461 11.203632 -0.051562
62.043263 96.594461 11.202571 -0.053008
64.024687 96.594461 11.144149 -0.046743
66.006110 96.594461 11.191435 -0.014455
67.987534 96.594461 0.000000 0.000000
-132.136287 94.613037 10.691492 -0.049747
-130.154863 94.613037 10.858538 0.235619
-128.173439 94.613037 11.206799 0.506851
-126.192015 94.613037 11.116578 0.688380
-124.210591 94.613037 11.132847 0.621552
-122.229167 94.613037 11.295254 0.525783
-120.247743 94.613037 11.191281 0.489561
-118.266319 94.613037 11.196873 0.473542
-116.284895 94.613037 11.337907 0.462173
-114.303471 94.613037 11.465800 0.367080
-112.322047 94.613037 0.000000 0.000000
-110.340623 94.613037 0.000000 0.000000
-108.359199 94.613037 0.000000 0.000000
-106.377775 94.613037 0.000000 0.000000
-104.396351 94.613037 0.000000 0.000000
-102.414927 94.613037 0.000000 0.000000
-100.433503 94.613037 0.000000 0.000000
-98.452079 94.613037 0.000000 0.000000
-96.470655 94.613037 0.000000 0.000000
-94.489231 94.613037 0.000000 0.000000
-92.507807 94.613037 0.000000 0.000000
-90.526383 94.613037 0.000000 0.000000
-88.544959 94.613037 11.327559 0.376602
-86.563536 94.613037 11.386726 0.365885
-84.582112 94.613037 11.388144 0.392998
-82.600688 94.613037 11.365586 0.387111
-80.619264 94.613037 11.443271 0.337232
-78.637840 94.613037 11.537351 0.300416
-76.656416 94.613037 11.407081 0.284714
-74.674992 94.613037 11.354539 0.337596
-72.693568 94.613037 11.492955 0.306798
-70.712144 94.613037 11.571704 0.347587
-68.730720 94.613037 11.492910 0.391651
-66.749296 94.613037 11.501561 0.281670
-64.767872 94.613037 11.409403 0.230756
-62.786448 94.613037 11.392051 0.158494
-60.805024 94.613037 11.433253 0.085685
-58.823600 94.613037 11.478630 0.087023
-56.842176 94.613037 11.514228 0.220298
-54.860752 94.613037 11.493519 0.332191
-52.879328 94.613037 11.364830 0.185804
-50.897904 94.613037 11.388309 0.064459
-48.916480 94.613037 11.326329 0.074651
-46.935056 94.613037 11.384999 0.009814
-44.953632 94.613037 11.442338 0.073568
-42.972208 94.613037 11.273998 0.079666
-40.990784 94.613037 11.283479 -0.184718
-39.009360 94.613037 11.452351 -0.208412
-37.027936 94.613037 11.471934 -0.043319
-35.046512 94.613037 11.371643 0.037602
-33.065088 94.613037 11.232137 -0.064139
-31.083664 94.613037 11.338128 -0.203365
-29.102240 94.613037 11.224411 -0.245609
-27.120816 94.613037 11.255919 -0.245111
-25.139392 94.613037 11.281285 -0.149140
-23.157968 94.613037 11.342406 -0.098245
-21.176544 94.613037 11.336572 -0.158352
-19.195120 94.613037 11.255473 -0.154446
-17.213696 94.613037 11.207665 -0.126303
-15.232272 94.613037 11.249962 -0.120500
-13.250848 94.613037 0.000000 0.000000
-11.269424 94.613037 0.000000 0.000000
-9.288001 94.613037 0.000000 0.000000
-7.306577 94.613037 0.000000 0.000000
-5.325153 94.613037 0.000000 0.000000
-3.343729 94.613037 0.000000 0.000000
-1.362305 94.613037 11.297540 -0.184915
0.619119 94.613037 11.364028 -0.222329
2.600543 94.613037 11.192910 -0.114464
4.581967 94.613037 11.233860 0.009966
6.563391 94.613037 11.376689 -0.072230
8.544815 94.613037 11.286339 -0.218385
10.526239 94.613037 11.213552 -0.199540
12.507663 94.613037 11.247025 -0.176090
14.489087 94.613037 11.168994 -0.196799
16.470511 94.613037 11.095422 -0.135818
18.451935 94.613037 11.247387 -0.038166
20.433359 94.613037 11.236296 -0.058985
22.414783 94.613037 11.095392 -0.107785
24.396207 94.613037 11.159202 -0.017600
26.377631 94.613037 11.243453 0.025009
28.359055 94.613037 11.167273 -0.072636
30.340479 94.613037 11.090733 -0.061265
32.321903 94.613037 11.099615 -0.059588
34.303327 94.613037 11.106556 -0.251482
36.284751 94.613037 11.149295 -0.194734
38.266175 94.613037 11.189753 -0.081275
40.247599 94.613037 11.093025 0.023951
42.229023 94.613037 11.093620 0.125953
44.210447 94.613037 11.071930 0.158923
46.191871 94.613037 11.026992 0.146949
48.173295 94.613037 11.072064 0.063801
50.154719 94.613037 11.121238 -0.017430
52.136143 94.613037 11.097117 -0.001979
54.117567 94.613037 11.084927 0.140848
56.098991 94.613037 11.101542 0.163529
58.080415 94.613037 11.074779 0.096604
60.061839 94.613037 11.153310 0.033773
62.043263 94.613037 11.231482 0.030579
64.024687 94.613037 11.211740 -0.002063
66.006110 94.613037 11.117039 -0.006637
67.987534 94.613037 0.000000 0.000000
-132.136287 92.631613 11.161154 0.465069
-130.154863 92.631613 11.254763 0.447173
-128.173439 92.631613 11.069789 0.603549
-126.192015 92.631613 10.790959 0.555382
-124.210591 92.631613 10.851751 0.459256
-122.229167 92.631613 11.021068 0.429082
-120.247743 92.631613 11.127254 0.397014
-118.266319 92.631613 11.285766 0.443559
-116.284895 92.631613 11.530057 0.343786
-114.303471 92.631613 11.677284 0.204857
-112.322047 92.631613 0.000000 0.000000
-110.340623 92.631613 0.000000 0.000000
-108.359199 92.631613 0.000000 0.000000
-106.377775 92.631613 0.000000 0.000000
-104.396351 92.631613 0.000000 0.000000
-102.414927 92.631613 0.000000 0.000000
-100.433503 92.631613 0.000000 0.000000
-98.452079 92.631613 0.000000 0.000000
-96.470655 92.631613 0.000000 0.000000
-94.489231 92.631613 0.000000 0.000000
-92.507807 92.631613 0.000000 0.000000
-90.526383 92.631613 0.000000 0.000000
-88.544959 92.631613 11.485493 0.401301
-86.563536 92.631613 11.456152 0.443608
-84.582112 92.631613 11.458123 0.399088
-82.600688 92.631613 11.433943 0.344250
-80.619264 92.631613 11.392047 0.220532
-78.637840 92.631613 11.400148 0.142458
-76.656416 92.631613 11.324447 0.191121
-74.674992 92.631613 11.416167 0.216888
-72.693568 92.631613 11.515864 0.198454
-70.712144 92.631613 11.469630 0.228702
-68.730720 92.631613 11.398349 0.158507
-66.749296 92.631613 11.441648 0.120399
-64.767872 92.631613 11.436584 0.153467
-62.786448 92.631613 11.368783 0.146150
-60.805024 92.631613 11.340767 0.102571
-58.823600 92.631613 11.394485 0.100223
-56.842176 92.631613 11.491549 0.170291
-54.860752 92.631613 11.495715 0.214695
-52.879328 92.631613 11.340511 0.043807
-50.897904 92.631613 11.312058 -0.081306
-48.916480 92.631613 11.424007 -0.001952
-46.935056 92.631613 11.367236 0.079602
-44.953632 92.631613 11.387197 0.108375
-42.972208 92.631613 11.329840 0.069505
-40.990784 92.631613 11.251282 -0.039800
-39.009360 92.631613 11.294133 -0.083012
-37.027936 92.631613 11.524402 -0.079738
-35.046512 92.631613 11.479974 -0.055034
-33.065088 92.631613 11.313222 -0.124049
-31.083664 92.631613 11.296015 -0.177762
-29.102240 92.631613 11.281677 -0.238421
-27.120816 92.631613 11.290359 -0.194154
-25.139392 92.631613 11.334625 -0.187489
-23.157968 92.631613 11.453422 -0.232664
-21.176544 92.631613 11.336215 -0.171542
-19.195120 92.631613 11.150423 -0.062889
-17.213696 92.631613 11.160751 0.012227
-15.232272 92.631613 11.199492 -0.016467
-13.250848 92.631613 0.000000 0.000000
-11.269424 92.631613 0.000000 0.000000
-9.288001 92.631613 0.000000 0.000000
-7.306577 92.631613 0.000000 0.000000
-5.325153 92.631613 0.000000 0.000000
-3.343729 92.631613 0.000000 0.000000
-1.362305 92.631613 11.215608 -0.200957
0.619119 92.631613 11.358415 -0.054656
2.600543 92.631613 11.269879 -0.051154
4.581967 92.631613 11.313497 -0.071736
6.563391 92.631613 11.311419 -0.106959
8.544815 92.631613 11.154548 -0.140886
10.526239 92.631613 11.233435 -0.225897
12.507663 92.631613 11.245843 -0.262916
14.489087 92.631613 11.057359 -0.213300
16.470511 92.631613 11.026375 -0.258838
18.451935 92.631613 11.209665 -0.163140
20.433359 92.631613 11.246329 0.008317
22.414783 92.631613 11.104095 -0.053977
24.396207 92.631613 11.080606 -0.045950
26.377631 92.631613 11.275843 -0.045846
28.359055 92.631613 11.175645 -0.104792
30.340479 92.631613 11.012771 -0.063015
32.321903 92.631613 11.039501 -0.000043
34.303327 92.631613 11.096779 -0.044200
36.284751 92.631613 11.233539 -0.018656
38.266175 92.631613 11.184208 -0.025917
40.247599 92.631613 11.035510 0.008257
42.229023 92.631613 11.078638 0.116352
44.210447 92.631613 11.071981 0.163071
46.191871 92.631613 11.116060 0.118646
48.173295 92.631613 11.136864 0.056030
50.154719 92.631613 11.117381 0.029874
52.136143 92.631613 11.152169 0.024816
54.117567 92.631613 11.133352 -0.025961
56.098991 92.631613 11.135278 -0.008550
58.080415 92.631613 11.112959 0.089063
60.061839 92.631613 11.090474 0.035097
62.043263 92.631613 11.128091 0.050944
64.024687 92.631613 11.113029 0.129826
66.006110 92.631613 11.050467 0.112093
67.987534 92.631613 0.000000 0.000000
-132.136287 90.650189 11.352089 0.696226
-130.154863 90.650189 11.400141 0.350297
-128.173439 90.650189 11.316288 0.325434
-126.192015 90.650189 11.057288 0.334500
-124.210591 90.650189 11.026507 0.404415
-122.229167 90.650189 11.150027 0.566311
-120.247743 90.650189 11.127886 0.388427
-118.266319 90.650189 11.258064 0.508014
-116.284895 90.650189 11.507814 0.612808
-114.303471 90.650189 11.589829 0.474359
-112.322047 90.650189 0.000000 0.000000
-110.340623 90.650189 0.000000 0.000000
-108.359199 90.650189 0.000000 0.000000
-106.377775 90.650189 0.000000 0.000000
-104.396351 90.650189 0.000000 0.000000
-102.414927 90.650189 0.000000 0.000000
-100.433503 90.650189 0.000000 0.000000
-98.452079 90.650189 0.000000 0.000000
-96.470655 90.650189 0.000000 0.000000
-94.489231 90.650189 0.000000 0.000000
-92.507807 90.650189 0.000000 0.000000
-90.526383 90.650189 0.000000 0.000000
-88.544959 90.650189 11.572872 0.426115
-86.563536 90.650189 11.449027 0.392134
-84.582112 90.650189 11.430771 0.327238
-82.600688 90.650189 11.407288 0.258081
-80.619264 90.650189 11.379285 0.235417
-78.637840 90.650189 11.368640 0.268773
-76.656416 90.650189 11.402330 0.189938
-74.674992 90.650189 11.406848 0.174592
-72.693568 90.650189 11.420072 0.214526
-70.712144 90.650189 11.364243 0.205252
-68.730720 90.650189 11.304625 0.153864
-66.749296 90.650189 11.400520 0.065227
-64.767872 90.650189 11.477764 0.053948
-62.786448 90.650189 11.416153 0.219885
-60.805024 90.650189 11.513304 0.240681
-58.823600 90.650189 11.492039 0.131183
-56.842176 90.650189 11.398354 0.113746
-54.860752 90.650189 11.449841 0.146133
-52.879328 90.650189 11.437781 0.060471
-50.897904 90.650189 11.380127 -0.037673
-48.916480 90.650189 11.503865 0.048941
-46.935056 90.650189 11.508283 0.047117
-44.953632 90.650189 11.470951 -0.001054
-42.972208 90.650189 11.458848 -0.022185
-40.990784 90.650189 11.453701 -0.057202
-39.009360 90.650189 11.446739 -0.046894
-37.027936 90.650189 11.427393 -0.078943
-35.046512 90.650189 11.423338 -0.099810
-33.065088 90.650189 11.415650 -0.190338
-31.083664 90.650189 11.322838 -0.149711
-29.102240 90.650189 11.423950 -0.062619
-27.120816 90.650189 11.349861 -0.098790
-25.139392 90.650189 11.253644 -0.156455
-23.157968 90.650189 11.356562 -0.164909
-21.176544 90.650189 11.327633 -0.107744
-19.195120 90.650189 11.165465 0.015905
-17.213696 90.650189 11.237506 0.068689
-15.232272 90.650189 11.286257 0.045045
-13.250848 90.650189 0.000000 0.000000
-11.269424 90.650189 0.000000 0.000000
-9.288001 90.650189 0.000000 0.000000
-7.306577 90.650189 0.000000 0.000000
-5.325153 90.650189 0.000000 0.000000
-3.343729 90.650189 11.232020 -0.335161
-1.362305 90.650189 11.234599 -0.131400
0.619119 90.650189 11.250678 0.050474
2.600543 90.650189 11.315798 -0.002874
4.581967 90.650189 11.409911 -0.079508
6.563391 90.650189 11.354606 -0.068433
8.544815 90.650189 11.217505 -0.094851
10.526239 90.650189 11.166248 -0.190234
12.507663 90.650189 11.161308 -0.230615
14.489087 90.650189 11.018457 -0.168101
16.470511 90.650189 11.036811 -0.242339
18.451935 90.650189 11.242703 -0.209402
20.433359 90.650189 11.298161 -0.049846
22.414783 90.650189 11.198245 0.035022
24.396207 90.650189 11.119185 0.030399
26.377631 90.650189 11.260162 0.001001
28.359055 90.650189 11.108469 0.035303
30.340479 90.650189 11.053301 0.011317
32.321903 90.650189 11.081588 0.026699
34.303327 90.650189 11.064005 0.119784
36.284751 90.650189 11.208097 0.065687
38.266175 90.650189 11.222276 -0.066486
40.247599 90.650189 11.118786 -0.056049
42.229023 90.650189 11.051812 0.051788
44.210447 90.650189 11.078696 0.113076
46.191871 90.650189 11.188631 0.074726
48.173295 90.650189 11.191937 -0.017049
50.154719 90.650189 11.112667 -0.034754
52.136143 90.650189 11.083785 -0.070339
54.117567 90.650189 11.157862 -0.084962
56.098991 90.650189 11.135304 -0.064215
58.080415 90.650189 11.070869 -0.040562
60.061839 90.650189 10.998388 -0.052819
62.043263 90.650189 10.988564 -0.060938
64.024687 90.650189 10.964374 -0.014322
66.006110 90.650189 10.975190 0.073652
67.987534 90.650189 0.000000 0.000000
-132.136287 88.668765 11.293355 1.034446
-130.154863 88.668765 11.279353 0.546270
-128.173439 88.668765 11.014644 0.146450
-126.192015 88.668765 11.038465 0.222554
-124.210591 88.668765 11.259267 0.473766
-122.229167 88.668765 11.423852 0.564128
-120.247743 88.668765 11.331813 0.585588
-118.266319 88.668765 11.192281 0.592083
-116.284895 88.668765 11.245878 0.635692
-114.303471 88.668765 11.410010 0.651707
-112.322047 88.668765 0.000000 0.000000
-110.340623 88.668765 0.000000 0.000000
-108.359199 88.668765 0.000000 0.000000
-106.377775 88.668765 0.000000 0.000000
-104.396351 88.668765 0.000000 0.000000
-102.414927 88.668765 0.000000 0.000000
-100.433503 88.668765 0.000000 0.000000
-98.452079 88.668765 0.000000 0.000000
-96.470655 88.668765 0.000000 0.000000
-94.489231 88.668765 0.000000 0.000000
-92.507807 88.668765 0.000000 0.000000
-90.526383 88.668765 11.364021 0.650988
-88.544959 88.668765 11.402224 0.492721
-86.563536 88.668765 11.372577 0.311563
-84.582112 88.668765 11.431064 0.231014
-82.600688 88.668765 11.415296 0.246413
-80.619264 88.668765 11.428764 0.280475
-78.637840 88.668765 11.411641 0.321874
-76.656416 88.668765 11.547956 0.271934
-74.674992 88.668765 11.493124 0.224802
-72.693568 88.668765 11.355165 0.268954
-70.712144 88.668765 11.400982 0.296343
-68.730720 88.668765 11.347127 0.238093
-66.749296 88.668765 11.446557 0.131241
-64.767872 88.668765 11.505846 0.146051
-62.786448 88.668765 11.441115 0.172559
-60.805024 88.668765 11.504761 0.109115
-58.823600 88.668765 11.523582 0.054684
-56.842176 88.668765 11.428526 0.098204
-54.860752 88.668765 11.473974 0.130713
-52.879328 88.668765 11.480342 0.061127
-50.897904 88.668765 11.413477 0.024043
-48.916480 88.668765 11.449414 0.135630
-46.935056 88.668765 11.528870 0.075071
-44.953632 88.668765 11.506961 -0.059252
-42.972208 88.668765 11.433747 -0.061207
-40.990784 88.668765 11.542644 -0.069851
-39.009360 88.668765 11.538194 -0.039732
-37.027936 88.668765 11.397689 -0.060058
-35.046512 88.668765 11.384771 -0.045206
-33.065088 88.668765 11.456658 -0.059027
-31.083664 88.668765 11.423453 -0.078379
-29.102240 88.668765 11.465139 -0.107306
-27.120816 88.668765 11.438241 -0.185173
-25.139392 88.668765 11.216421 -0.161730
-23.157968 88.668765 11.187778 -0.130722
-21.176544 88.668765 11.341051 -0.143269
-19.195120 88.668765 11.345101 -0.069367
-17.213696 88.668765 11.303574 -0.044686
-15.232272 88.668765 11.236296 -0.050599
-13.250848 88.668765 0.000000 0.000000
-11.269424 88.668765 0.000000 0.000000
-9.288001 88.668765 0.000000 0.000000
-7.306577 88.668765 0.000000 0.000000
-5.325153 88.668765 0.000000 0.000000
-3.343729 88.668765 11.356697 -0.197618
-1.362305 88.668765 11.257765 -0.185795
0.619119 88.668765 11.161783 -0.112106
2.600543 88.668765 11.226554 0.020516
4.581967 88.668765 11.313767 0.043325
6.563391 88.668765 11.362856 -0.202206
8.544815 88.668765 11.235331 -0.308238
10.526239 88.668765 11.054797 -0.268741
12.507663 88.668765 11.146267 -0.255664
14.489087 88.668765 11.126612 -0.176381
16.470511 88.668765 11.058672 -0.158813
18.451935 88.668765 11.121552 -0.260630
20.433359 88.668765 11.166295 -0.172001
22.414783 88.668765 11.122674 -0.033546
24.396207 88.668765 11.102263 -0.043445
26.377631 88.668765 11.095821 0.076044
28.359055 88.668765 11.032234 0.118303
30.340479 88.668765 11.045420 0.000644
32.321903 88.668765 11.106889 0.075339
34.303327 88.668765 11.103893 0.071761
36.284751 88.668765 11.135214 -0.046867
38.266175 88.668765 11.186246 -0.075598
40.247599 88.668765 11.094046 0.081313
42.229023 88.668765 11.139067 0.184844
44.210447 88.668765 11.188947 0.037811
46.191871 88.668765 11.198700 -0.056974
48.173295 88.668765 11.163032 -0.044928
50.154719 88.668765 11.046596 -0.007308
52.136143 88.668765 11.023838 -0.059044
54.117567 88.668765 11.163668 -0.063011
56.098991 88.668765 11.145238 0.009366
58.080415 88.668765 11.059965 -0.013842
60.061839 88.668765 11.099484 -0.023910
62.043263 88.668765 11.106275 -0.111985
64.024687 88.668765 11.053831 -0.157138
66.006110 88.668765 11.041651 -0.044914
67.987534 88.668765 0.000000 0.000000
-132.136287 86.687341 15.547544 -4.261712
-130.154863 86.687341 11.469767 0.911960
-128.173439 86.687341 10.997560 0.306967
-126.192015 86.687341 10.945760 0.122243
-124.210591 86.687341 11.046185 0.502942
-122.229167 86.687341 11.384295 0.646457
-120.247743 86.687341 11.340585 0.652683
-118.266319 86.687341 11.134066 0.595858
-116.284895 86.687341 11.316158 0.517897
-114.303471 86.687341 11.431478 0.582010
-112.322047 86.687341 0.000000 0.000000
-110.340623 86.687341 0.000000 0.000000
-108.359199 86.687341 0.000000 0.000000
-106.377775 86.687341 0.000000 0.000000
-104.396351 86.687341 0.000000 0.000000
-102.414927 86.687341 0.000000 0.000000
-100.433503 86.687341 0.000000 0.000000
-98.452079 86.687341 0.000000 0.000000
-96.470655 86.687341 0.000000 0.000000
-94.489231 86.687341 0.000000 0.000000
-92.507807 86.687341 0.000000 0.000000
-90.526383 86.687341 11.209651 0.561023
-88.544959 86.687341 11.310073 0.443200
-86.563536 86.687341 11.357937 0.369745
-84.582112 86.687341 11.471478 0.455967
-82.600688 86.687341 11.423944 0.427029
-80.619264 86.687341 11.365264 0.364971
-78.637840 86.687341 11.379598 0.297755
-76.656416 86.687341 11.428491 0.331504
-74.674992 86.687341 11.512764 0.354685
-72.693568 86.687341 11.524800 0.322736
-70.712144 86.687341 11.462322 0.267880
-68.730720 86.687341 11.462997 0.207076
-66.749296 86.687341 11.533931 0.289214
-64.767872 86.687341 11.490583 0.257575
-62.786448 86.687341 11.463688 0.134543
-60.805024 86.687341 11.497787 0.068885
-58.823600 86.687341 11.514273 0.001494
-56.842176 86.687341 11.568986 0.053106
-54.860752 86.687341 11.529930 0.115967
-52.879328 86.687341 11.462474 0.023196
-50.897904 86.687341 11.486725 -0.025158
-48.916480 86.687341 11.463178 0.067000
-46.935056 86.687341 11.495881 0.058194
-44.953632 86.687341 11.446739 -0.064141
-42.972208 86.687341 11.416159 -0.024421
-40.990784 86.687341 11.474580 0.051267
-39.009360 86.687341 11.460494 -0.025433
-37.027936 86.687341 11.399307 -0.132051
-35.046512 86.687341 11.394197 -0.075535
-33.065088 86.687341 11.426652 -0.082277
-31.083664 86.687341 11.440748 -0.134190
-29.102240 86.687341 11.440462 -0.166458
-27.120816 86.687341 11.439612 -0.205422
-25.139392 86.687341 11.237735 -0.173488
-23.157968 86.687341 11.120819 -0.113874
-21.176544 86.687341 11.262985 -0.147528
-19.195120 86.687341 11.386684 -0.213852
-17.213696 86.687341 11.293789 -0.146332
-15.232272 86.687341 11.104001 -0.069926
-13.250848 86.687341 0.000000 0.000000
-11.269424 86.687341 0.000000 0.000000
-9.288001 86.687341 0.000000 0.000000
-7.306577 86.687341 0.000000 0.000000
-5.325153 86.687341 0.000000 0.000000
-3.343729 86.687341 11.337986 0.029963
-1.362305 86.687341 11.234522 -0.142981
0.619119 86.687341 11.233570 -0.234722
2.600543 86.687341 11.269318 -0.054882
4.581967 86.687341 11.231746 0.055973
6.563391 86.687341 11.264589 -0.312877
8.544815 86.687341 11.212445 -0.551122
10.526239 86.687341 11.096526 -0.251571
12.507663 86.687341 11.161202 -0.245514
14.489087 86.687341 11.196531 -0.214687
16.470511 86.687341 11.188136 -0.226340
18.451935 86.687341 11.122773 -0.280704
20.433359 86.687341 11.116728 -0.247615
22.414783 86.687341 11.077472 -0.227845
24.396207 86.687341 11.010259 -0.110644
26.377631 86.687341 11.033177 0.029211
28.359055 86.687341 11.088719 0.056130
30.340479 86.687341 11.095221 0.021008
32.321903 86.687341 11.146292 0.073239
34.303327 86.687341 11.170486 -0.008654
36.284751 86.687341 11.157814 -0.215723
38.266175 86.687341 11.130755 -0.183324
40.247599 86.687341 11.096757 0.104197
42.229023 86.687341 11.191341 0.054802
44.210447 86.687341 11.268940 -0.127241
46.191871 86.687341 11.190759 -0.117555
48.173295 86.687341 11.119228 -0.006685
50.154719 86.687341 11.052184 0.043442
52.136143 86.687341 11.061908 -0.053751
54.117567 86.687341 11.184376 -0.085824
56.098991 86.687341 11.117883 -0.030935
58.080415 86.687341 11.024987 0.036822
60.061839 86.687341 11.149612 -0.007930
62.043263 86.687341 11.143436 -0.153619
64.024687 86.687341 11.093820 -0.150113
66.006110 86.687341 11.003322 0.007545
67.987534 86.687341 0.000000 0.000000
-132.136287 84.705917 11.199889 0.693318
-130.154863 84.705917 11.424248 0.838234
-128.173439 84.705917 11.332439 0.706194
-126.192015 84.705917 10.857934 0.531102
-124.210591 84.705917 10.904132 0.685817
-122.229167 84.705917 11.203854 0.685353
-120.247743 84.705917 11.248161 0.477190
-118.266319 84.705917 11.197062 0.411470
-116.284895 84.705917 11.276095 0.636382
-114.303471 84.705917 11.289794 0.733205
-112.322047 84.705917 0.000000 0.000000
-110.340623 84.705917 0.000000 0.000000
-108.359199 84.705917 0.000000 0.000000
-106.377775 84.705917 0.000000 0.000000
-104.396351 84.705917 0.000000 0.000000
-102.414927 84.705917 0.000000 0.000000