TITLE = "B00001"
VARIABLES = "position", "position(2)", "Vx", "Vy"
ZONE T="Frame 0", I=102, J=78
-132.136287 98.575885 0.000000 0.000000
-130.154863 98.575885 2.932656 -0.611858
-128.173439 98.575885 10.418786 2.353576
-126.192015 98.575885 10.755500 1.411215
-124.210591 98.575885 10.335493 1.314046
-122.229167 98.575885 10.465415 1.651895
-120.247743 98.575885 9.967648 1.238191
-118.266319 98.575885 10.036457 1.179353
-116.284895 98.575885 9.950257 0.385259
-114.303471 98.575885 0.000000 0.000000
-112.322047 98.575885 0.000000 0.000000
-110.340623 98.575885 0.000000 0.000000
-108.359199 98.575885 0.000000 0.000000
-106.377775 98.575885 0.000000 0.000000
-104.396351 98.575885 0.000000 0.000000
-102.414927 98.575885 0.000000 0.000000
-100.433503 98.575885 0.000000 0.000000
-98.452079 98.575885 0.000000 0.000000
-96.470655 98.575885 0.000000 0.000000
-94.489231 98.575885 0.000000 0.000000
-92.507807 98.575885 0.000000 0.000000
-90.526383 98.575885 0.000000 0.000000
-88.544959 98.575885 0.000000 0.000000
-86.563536 98.575885 10.462978 0.705113
-84.582112 98.575885 10.528452 1.392950
-82.600688 98.575885 10.442125 2.028244
-80.619264 98.575885 10.070816 1.609093
-78.637840 98.575885 10.068368 0.721354
-76.656416 98.575885 10.429387 1.283058
-74.674992 98.575885 10.291262 0.948906
-72.693568 98.575885 10.360603 0.269557
-70.712144 98.575885 10.366880 0.773181
-68.730720 98.575885 10.870909 -0.769204
-66.749296 98.575885 10.853796 0.699253
-64.767872 98.575885 10.821796 1.724091
-62.786448 98.575885 10.853600 1.181863
-60.805024 98.575885 11.093229 1.238153
-58.823600 98.575885 10.924701 0.874554
-56.842176 98.575885 10.892404 0.083221
-54.860752 98.575885 11.215803 0.815907
-52.879328 98.575885 11.402679 0.276852
-50.897904 98.575885 11.407443 1.204525
-48.916480 98.575885 11.515420 1.116298
-46.935056 98.575885 11.512424 1.418710
-44.953632 98.575885 11.370275 1.222450
-42.972208 98.575885 10.806468 0.489954
-40.990784 98.575885 10.668760 0.867718
-39.009360 98.575885 11.139346 0.287107
-37.027936 98.575885 11.393978 0.107358
-35.046512 98.575885 11.278259 0.525923
-33.065088 98.575885 11.244731 1.475639
-31.083664 98.575885 10.974054 1.238016
-29.102240 98.575885 11.190064 1.124576
-27.120816 98.575885 11.581376 0.609450
-25.139392 98.575885 11.226860 0.219276
-23.157968 98.575885 11.470112 1.552676
-21.176544 98.575885 11.617087 0.385221
-19.195120 98.575885 11.354913 1.186651
-17.213696 98.575885 0.000000 0.000000
-15.232272 98.575885 0.000000 0.000000
-13.250848 98.575885 0.000000 0.000000
-11.269424 98.575885 0.000000 0.000000
-9.288001 98.575885 0.000000 0.000000
-7.306577 98.575885 0.000000 0.000000
-5.325153 98.575885 11.710778 1.359976
-3.343729 98.575885 11.569700 0.424337
-1.362305 98.575885 11.235349 0.609062
0.619119 98.575885 11.417585 0.561047
2.600543 98.575885 11.140685 0.653215
4.581967 98.575885 11.476254 0.495011
6.563391 98.575885 11.771025 0.768720
8.544815 98.575885 11.736027 0.881430
10.526239 98.575885 11.743639 0.711927
12.507663 98.575885 11.354198 0.660597
14.489087 98.575885 11.326996 0.904764
16.470511 98.575885 11.566255 1.354080
18.451935 98.575885 11.375807 0.780533
20.433359 98.575885 11.052114 0.979855
22.414783 98.575885 10.810687 1.169314
24.396207 98.575885 11.074596 1.083413
26.377631 98.575885 11.645473 0.203780
28.359055 98.575885 11.655794 0.322046
30.340479 98.575885 11.659887 0.180842
32.321903 98.575885 11.636598 -0.264480
34.303327 98.575885 11.115572 -0.107825
36.284751 98.575885 11.044417 -0.009369
38.266175 98.575885 11.338043 0.077729
40.247599 98.575885 11.110519 -0.071857
42.229023 98.575885 10.944464 0.204197
44.210447 98.575885 10.618104 0.658906
46.191871 98.575885 10.691819 0.231162
48.173295 98.575885 11.101815 0.347165
50.154719 98.575885 10.613968 -0.062094
52.136143 98.575885 10.347031 0.924043
54.117567 98.575885 10.659467 0.014456
56.098991 98.575885 10.929554 0.326541
58.080415 98.575885 10.831713 0.362970
60.061839 98.575885 10.853953 0.205363
62.043263 98.575885 11.077455 -0.129691
64.024687 98.575885 10.586980 0.149924
66.006110 98.575885 10.636942 0.191134
67.987534 98.575885 0.000000 0.000000
-132.136287 96.594461 -2.866605 6.300677
-130.154863 96.594461 16.771030 0.071275
-128.173439 96.594461 1.512661 6.552242
-126.192015 96.594461 10.714746 0.692794
-124.210591 96.594461 10.658238 0.732337
-122.229167 96.594461 10.312873 0.229602
-120.247743 96.594461 10.159499 1.288992
-118.266319 96.594461 10.444214 1.222600
-116.284895 96.594461 10.535767 1.709814
-114.303471 96.594461 10.170448 1.897048
-112.322047 96.594461 0.000000 0.000000
-110.340623 96.594461 0.000000 0.000000
-108.359199 96.594461 0.000000 0.000000
-106.377775 96.594461 0.000000 0.000000
-104.396351 96.594461 0.000000 0.000000
-102.414927 96.594461 0.000000 0.000000
-100.433503 96.594461 0.000000 0.000000
-98.452079 96.594461 0.000000 0.000000
-96.470655 96.594461 0.000000 0.000000
-94.489231 96.594461 0.000000 0.000000
-92.507807 96.594461 0.000000 0.000000
-90.526383 96.594461 0.000000 0.000000
-88.544959 96.594461 0.000000 0.000000
-86.563536 96.594461 10.386488 1.038778
-84.582112 96.594461 10.729057 0.725184
-82.600688 96.594461 10.701163 0.889791
-80.619264 96.594461 10.239511 1.266257
-78.637840 96.594461 10.212493 0.410878
-76.656416 96.594461 10.428181 1.437394
-74.674992 96.594461 9.945729 1.166884
-72.693568 96.594461 10.229683 0.355357
-70.712144 96.594461 10.316340 0.665076
-68.730720 96.594461 10.527167 0.832211
-66.749296 96.594461 10.752170 1.029511
-64.767872 96.594461 10.649625 1.702164
-62.786448 96.594461 10.848145 0.789695
-60.805024 96.594461 10.984333 1.543409
-58.823600 96.594461 11.034592 0.993425
-56.842176 96.594461 10.953018 1.120418
-54.860752 96.594461 11.015778 0.621651
-52.879328 96.594461 11.072920 1.192453
-50.897904 96.594461 11.190299 0.692220
-48.916480 96.594461 10.916544 0.793824
-46.935056 96.594461 10.933296 1.226470
-44.953632 96.594461 11.390656 1.291338
-42.972208 96.594461 11.377548 1.478565
-40.990784 96.594461 10.890149 0.824329
-39.009360 96.594461 11.072303 0.702768
-37.027936 96.594461 11.245041 1.218344
-35.046512 96.594461 10.903375 0.811272
-33.065088 96.594461 11.080129 1.445395
-31.083664 96.594461 11.453289 1.592109
-29.102240 96.594461 11.531891 0.716793
-27.120816 96.594461 10.851054 0.496090
-25.139392 96.594461 10.774081 0.639832
-23.157968 96.594461 11.342012 0.425782
-21.176544 96.594461 11.598821 0.954074
-19.195120 96.594461 11.373314 1.611185
-17.213696 96.594461 11.065516 -0.319173
-15.232272 96.594461 0.000000 0.000000
-13.250848 96.594461 0.000000 0.000000
-11.269424 96.594461 0.000000 0.000000
-9.288001 96.594461 0.000000 0.000000
-7.306577 96.594461 0.000000 0.000000
-5.325153 96.594461 11.858870 1.713815
-3.343729 96.594461 11.543865 0.806779
-1.362305 96.594461 11.538568 0.529139
0.619119 96.594461 11.789032 0.919116
2.600543 96.594461 11.381742 1.521287
4.581967 96.594461 11.349737 0.786126
6.563391 96.594461 11.554656 0.702859
8.544815 96.594461 11.488589 0.586559
10.526239 96.594461 11.585927 1.333806
12.507663 96.594461 11.727408 1.304467
14.489087 96.594461 11.630127 0.250916
16.470511 96.594461 11.485582 0.416295
18.451935 96.594461 11.221477 0.190069
20.433359 96.594461 11.445532 0.543276
22.414783 96.594461 11.380541 0.818237
24.396207 96.594461 11.197914 0.809737
26.377631 96.594461 11.473147 0.738067
28.359055 96.594461 11.626997 0.598231
30.340479 96.594461 11.639006 -0.112636
32.321903 96.594461 11.491438 -0.290226
34.303327 96.594461 11.371522 0.132679
36.284751 96.594461 11.342285 -0.471467
38.266175 96.594461 11.521822 -0.359902
40.247599 96.594461 11.158407 0.036947
42.229023 96.594461 10.786877 0.138195
44.210447 96.594461 10.604764 0.319268
46.191871 96.594461 11.017804 1.146163
48.173295 96.594461 11.131695 0.873816
50.154719 96.594461 10.497849 -0.307937
52.136143 96.594461 10.637748 -0.278879
54.117567 96.594461 10.957579 -0.523096
56.098991 96.594461 11.062320 0.082943
58.080415 96.594461 11.114664 0.633725
60.061839 96.594461 10.979102 0.529751
62.043263 96.594461 10.878019 0.486868
64.024687 96.594461 10.720759 -0.615653
66.006110 96.594461 10.638183 -0.041654
67.987534 96.594461 0.000000 0.000000
-132.136287 94.613037 -5.572243 -16.008516
-130.154863 94.613037 14.749703 16.227688
-128.173439 94.613037 -2.070313 -13.391279
-126.192015 94.613037 10.505774 0.629316
-124.210591 94.613037 10.208776 1.526217
-122.229167 94.613037 9.875708 1.497682
-120.247743 94.613037 10.110923 1.334211
-118.266319 94.613037 10.610168 1.069412
-116.284895 94.613037 11.017206 0.634702
-114.303471 94.613037 10.651290 1.792443
-112.322047 94.613037 0.000000 0.000000
-110.340623 94.613037 0.000000 0.000000
-108.359199 94.613037 0.000000 0.000000
-106.377775 94.613037 0.000000 0.000000
-104.396351 94.613037 0.000000 0.000000
-102.414927 94.613037 0.000000 0.000000
-100.433503 94.613037 0.000000 0.000000
-98.452079 94.613037 0.000000 0.000000
-96.470655 94.613037 0.000000 0.000000
-94.489231 94.613037 0.000000 0.000000
-92.507807 94.613037 0.000000 0.000000
-90.526383 94.613037 0.000000 0.000000
-88.544959 94.613037 0.000000 0.000000
-86.563536 94.613037 10.564790 1.091877
-84.582112 94.613037 10.603097 1.392650
-82.600688 94.613037 10.655301 1.583507
-80.619264 94.613037 10.462189 1.349785
-78.637840 94.613037 10.703407 1.165594
-76.656416 94.613037 10.589652 1.709126
-74.674992 94.613037 10.433416 1.920692
-72.693568 94.613037 10.552617 1.008742
-70.712144 94.613037 10.301720 1.077859
-68.730720 94.613037 10.400439 1.193100
-66.749296 94.613037 10.751716 1.555487
-64.767872 94.613037 10.454057 1.766564
-62.786448 94.613037 10.643074 1.309822
-60.805024 94.613037 10.857167 1.725454
-58.823600 94.613037 10.955460 0.551150
-56.842176 94.613037 10.985551 1.076856
-54.860752 94.613037 10.955612 0.494475
-52.879328 94.613037 11.207201 1.266932
-50.897904 94.613037 11.001263 1.053119
-48.916480 94.613037 10.669570 1.042623
-46.935056 94.613037 11.017856 1.421691
-44.953632 94.613037 11.069401 0.915274
-42.972208 94.613037 10.968016 1.022308
-40.990784 94.613037 10.664964 1.220380
-39.009360 94.613037 10.687864 0.711908
-37.027936 94.613037 11.328595 0.431708
-35.046512 94.613037 11.103029 1.651441
-33.065088 94.613037 11.147573 1.972818
-31.083664 94.613037 11.431882 0.559181
-29.102240 94.613037 11.231382 0.828566
-27.120816 94.613037 10.979620 1.191336
-25.139392 94.613037 11.011688 0.788491
-23.157968 94.613037 11.313122 0.710864
-21.176544 94.613037 11.614999 1.339669
-19.195120 94.613037 11.591471 1.309247
-17.213696 94.613037 11.040284 0.606110
-15.232272 94.613037 0.000000 0.000000
-13.250848 94.613037 0.000000 0.000000
-11.269424 94.613037 0.000000 0.000000
-9.288001 94.613037 0.000000 0.000000
-7.306577 94.613037 0.000000 0.000000
-5.325153 94.613037 11.895784 1.674451
-3.343729 94.613037 11.790276 1.470764
-1.362305 94.613037 11.739204 1.243232
0.619119 94.613037 11.976256 0.767783
2.600543 94.613037 11.713778 1.310167
4.581967 94.613037 11.475595 0.962679
6.563391 94.613037 11.391671 0.422505
8.544815 94.613037 11.521992 0.798231
10.526239 94.613037 11.448174 1.154915
12.507663 94.613037 11.635148 1.014037
14.489087 94.613037 11.457259 0.469844
16.470511 94.613037 11.353490 0.367683
18.451935 94.613037 11.119561 0.072408
20.433359 94.613037 11.521008 0.257565
22.414783 94.613037 11.597548 0.107106
24.396207 94.613037 11.302852 0.216223
26.377631 94.613037 11.695951 0.862047
28.359055 94.613037 11.656995 1.172399
30.340479 94.613037 11.324309 0.437894
32.321903 94.613037 11.314832 0.324811
34.303327 94.613037 11.311454 0.573047
36.284751 94.613037 11.195533 -0.153809
38.266175 94.613037 11.308440 0.246571
40.247599 94.613037 11.202271 0.427034
42.229023 94.613037 11.005488 0.463297
44.210447 94.613037 11.061054 0.531372
46.191871 94.613037 11.230443 0.270458
48.173295 94.613037 11.039921 0.540748
50.154719 94.613037 10.643450 -0.623156
52.136143 94.613037 10.666496 -0.240475
54.117567 94.613037 11.367570 -0.337481
56.098991 94.613037 11.471936 0.368634
58.080415 94.613037 11.081734 0.927220
60.061839 94.613037 10.575099 0.164637
62.043263 94.613037 10.552361 0.422680
64.024687 94.613037 10.790735 -0.520590
66.006110 94.613037 10.914269 0.382364
67.987534 94.613037 0.000000 0.000000
-132.136287 92.631613 10.580606 -14.003938
-130.154863 92.631613 20.976284 0.062254
-128.173439 92.631613 10.546925 0.912369
-126.192015 92.631613 9.951613 0.661892
-124.210591 92.631613 10.259104 1.057722
-122.229167 92.631613 10.077701 0.772318
-120.247743 92.631613 9.943605 -0.551622
-118.266319 92.631613 10.289320 0.837689
-116.284895 92.631613 10.657575 0.520315
-114.303471 92.631613 10.644795 0.966599
-112.322047 92.631613 0.000000 0.000000
-110.340623 92.631613 0.000000 0.000000
-108.359199 92.631613 0.000000 0.000000
-106.377775 92.631613 0.000000 0.000000
-104.396351 92.631613 0.000000 0.000000
-102.414927 92.631613 0.000000 0.000000
-100.433503 92.631613 0.000000 0.000000
-98.452079 92.631613 0.000000 0.000000
-96.470655 92.631613 0.000000 0.000000
-94.489231 92.631613 0.000000 0.000000
-92.507807 92.631613 0.000000 0.000000
-90.526383 92.631613 0.000000 0.000000
-88.544959 92.631613 9.943230 1.163732
-86.563536 92.631613 10.659760 0.560103
-84.582112 92.631613 10.596556 1.594595
-82.600688 92.631613 10.543954 1.037029
-80.619264 92.631613 10.515132 1.235982
-78.637840 92.631613 11.090981 1.062712
-76.656416 92.631613 10.707089 0.825003
-74.674992 92.631613 10.609918 1.113490
-72.693568 92.631613 11.007974 1.476396
-70.712144 92.631613 11.061123 1.544555
-68.730720 92.631613 10.501905 1.662914
-66.749296 92.631613 10.542832 1.766376
-64.767872 92.631613 10.760900 1.536931
-62.786448 92.631613 10.854021 1.483485
-60.805024 92.631613 10.773039 1.735338
-58.823600 92.631613 11.176174 0.756395
-56.842176 92.631613 11.044004 -0.115149
-54.860752 92.631613 10.957074 0.544346
-52.879328 92.631613 11.231422 0.416352
-50.897904 92.631613 11.153029 0.378031
-48.916480 92.631613 11.158349 0.153662
-46.935056 92.631613 11.126084 1.249446
-44.953632 92.631613 10.997472 0.839528
-42.972208 92.631613 10.716700 0.301456
-40.990784 92.631613 10.544158 0.668614
-39.009360 92.631613 10.663051 1.270814
-37.027936 92.631613 11.259045 0.339655
-35.046512 92.631613 11.049766 1.064676
-33.065088 92.631613 11.083746 1.512211
-31.083664 92.631613 11.089524 1.095890
-29.102240 92.631613 11.083893 1.382127
-27.120816 92.631613 11.631557 1.539168
-25.139392 92.631613 11.555735 1.370297
-23.157968 92.631613 11.480467 1.237461
-21.176544 92.631613 11.573238 1.756257
-19.195120 92.631613 11.476954 0.971132
-17.213696 92.631613 11.588868 1.199888
-15.232272 92.631613 0.000000 0.000000
-13.250848 92.631613 0.000000 0.000000
-11.269424 92.631613 0.000000 0.000000
-9.288001 92.631613 0.000000 0.000000
-7.306577 92.631613 0.000000 0.000000
-5.325153 92.631613 11.581782 1.022199
-3.343729 92.631613 11.834155 1.095390
-1.362305 92.631613 11.745821 1.161604
0.619119 92.631613 12.029371 0.838430
2.600543 92.631613 11.767733 1.306996
4.581967 92.631613 11.527951 1.354240
6.563391 92.631613 11.309031 0.517372
8.544815 92.631613 11.475519 0.075705
10.526239 92.631613 11.548487 0.312803
12.507663 92.631613 11.224894 0.377939
14.489087 92.631613 11.344738 0.613442
16.470511 92.631613 11.581236 0.418304
18.451935 92.631613 11.503205 0.244077
20.433359 92.631613 11.549616 0.498981
22.414783 92.631613 11.513031 0.346247
24.396207 92.631613 11.273579 0.034529
26.377631 92.631613 11.703341 0.032384
28.359055 92.631613 11.544440 0.636278
30.340479 92.631613 11.225041 0.775608
32.321903 92.631613 11.286787 0.110462
34.303327 92.631613 11.351703 0.373391
36.284751 92.631613 11.202189 0.643677
38.266175 92.631613 11.131788 0.187863
40.247599 92.631613 11.291451 -0.020216
42.229023 92.631613 11.177923 -0.413279
44.210447 92.631613 11.291703 -0.023420
46.191871 92.631613 11.025335 0.034461
48.173295 92.631613 10.706530 -0.318537
50.154719 92.631613 10.575502 -0.524189
52.136143 92.631613 10.293734 0.554809
54.117567 92.631613 10.862848 -0.184765
56.098991 92.631613 11.227053 -0.426595
58.080415 92.631613 10.880849 0.289666
60.061839 92.631613 10.552932 -0.286495
62.043263 92.631613 10.773302 -0.094587
64.024687 92.631613 10.909459 -0.410950
66.006110 92.631613 11.171517 -0.370250
67.987534 92.631613 0.000000 0.000000
-132.136287 90.650189 33.688141 -1.202560
-130.154863 90.650189 36.640305 -28.059269
-128.173439 90.650189 11.263831 -0.912963
-126.192015 90.650189 10.240531 0.323616
-124.210591 90.650189 10.513796 1.003114
-122.229167 90.650189 10.382242 -0.018972
-120.247743 90.650189 9.559300 0.838887
-118.266319 90.650189 9.833950 0.567613
-116.284895 90.650189 10.624964 0.829729
-114.303471 90.650189 10.616369 0.811424
-112.322047 90.650189 0.000000 0.000000
-110.340623 90.650189 0.000000 0.000000
-108.359199 90.650189 0.000000 0.000000
-106.377775 90.650189 0.000000 0.000000
-104.396351 90.650189 0.000000 0.000000
-102.414927 90.650189 0.000000 0.000000
-100.433503 90.650189 0.000000 0.000000
-98.452079 90.650189 0.000000 0.000000
-96.470655 90.650189 0.000000 0.000000
-94.489231 90.650189 0.000000 0.000000
-92.507807 90.650189 0.000000 0.000000
-90.526383 90.650189 0.000000 0.000000
-88.544959 90.650189 9.788765 1.618508
-86.563536 90.650189 10.505507 1.319655
-84.582112 90.650189 10.457632 0.858879
-82.600688 90.650189 10.465822 0.789518
-80.619264 90.650189 10.415976 0.775924
-78.637840 90.650189 10.556050 1.250945
-76.656416 90.650189 10.367510 0.863340
-74.674992 90.650189 10.372790 0.978967
-72.693568 90.650189 10.924112 1.720506
-70.712144 90.650189 10.974729 1.070502
-68.730720 90.650189 10.501910 1.716236
-66.749296 90.650189 10.634163 1.896214
-64.767872 90.650189 10.785714 1.129107
-62.786448 90.650189 10.850690 0.274123
-60.805024 90.650189 10.709279 -0.163594
-58.823600 90.650189 11.251087 0.590800
-56.842176 90.650189 11.395913 0.869780
-54.860752 90.650189 11.207116 1.105396
-52.879328 90.650189 11.195395 0.275737
-50.897904 90.650189 11.424604 0.426574
-48.916480 90.650189 11.410490 1.070807
-46.935056 90.650189 11.010317 1.349511
-44.953632 90.650189 11.043272 1.218142
-42.972208 90.650189 10.762665 0.781563
-40.990784 90.650189 10.929953 1.356473
-39.009360 90.650189 11.090405 1.333686
-37.027936 90.650189 11.017313 0.950872
-35.046512 90.650189 10.689637 0.339495
-33.065088 90.650189 10.930213 1.156957
-31.083664 90.650189 11.245492 0.717664
-29.102240 90.650189 11.418406 0.930011
-27.120816 90.650189 11.345362 1.212519
-25.139392 90.650189 11.368731 1.276165
-23.157968 90.650189 11.440766 1.451443
-21.176544 90.650189 11.511453 1.320787
-19.195120 90.650189 11.661085 0.766667
-17.213696 90.650189 11.763464 1.078732
-15.232272 90.650189 0.000000 0.000000
-13.250848 90.650189 0.000000 0.000000
-11.269424 90.650189 0.000000 0.000000
-9.288001 90.650189 0.000000 0.000000
-7.306577 90.650189 0.000000 0.000000
-5.325153 90.650189 11.473598 0.453965
-3.343729 90.650189 11.655087 0.699841
-1.362305 90.650189 11.790935 1.083091
0.619119 90.650189 12.061678 1.217440
2.600543 90.650189 11.789049 1.533116
4.581967 90.650189 11.434988 0.641300
6.563391 90.650189 11.408404 0.976999
8.544815 90.650189 11.475234 0.613355
10.526239 90.650189 11.609314 0.399435
12.507663 90.650189 11.393286 0.508096
14.489087 90.650189 11.402173 0.272151
16.470511 90.650189 11.639660 0.235014
18.451935 90.650189 11.273977 0.658608
20.433359 90.650189 11.565952 0.576191
22.414783 90.650189 11.731873 0.731028
24.396207 90.650189 11.343418 -0.271107
26.377631 90.650189 11.577003 -0.347123
28.359055 90.650189 11.651420 -0.232640
30.340479 90.650189 11.307095 -0.162517
32.321903 90.650189 11.085208 0.203389
34.303327 90.650189 11.254472 0.765468
36.284751 90.650189 11.486915 0.890213
38.266175 90.650189 11.421768 -0.148268
40.247599 90.650189 11.348458 -0.917120
42.229023 90.650189 11.135265 -0.382147
44.210447 90.650189 11.144876 -0.495107
46.191871 90.650189 11.008391 -0.537356
48.173295 90.650189 10.911755 -0.774893
50.154719 90.650189 10.874408 -0.855634
52.136143 90.650189 10.579293 -0.141836
54.117567 90.650189 10.590836 0.193607
56.098991 90.650189 10.731215 -0.051258
58.080415 90.650189 10.818239 -1.007667
60.061839 90.650189 10.929190 -0.740937
62.043263 90.650189 11.073339 0.271991
64.024687 90.650189 10.921946 -0.229926
66.006110 90.650189 10.826708 -1.094603
67.987534 90.650189 0.000000 0.000000
-132.136287 88.668765 -19.590303 -18.750622
-130.154863 88.668765 59.430943 -21.933502
-128.173439 88.668765 10.275460 -0.557211
-126.192015 88.668765 10.736379 -0.524127
-124.210591 88.668765 10.564123 0.804452
-122.229167 88.668765 10.306800 -0.561893
-120.247743 88.668765 9.838365 0.018016
-118.266319 88.668765 9.637252 0.393416
-116.284895 88.668765 10.465332 0.081858
-114.303471 88.668765 10.364241 0.349283
-112.322047 88.668765 0.000000 0.000000
-110.340623 88.668765 0.000000 0.000000
-108.359199 88.668765 0.000000 0.000000
-106.377775 88.668765 0.000000 0.000000
-104.396351 88.668765 0.000000 0.000000
-102.414927 88.668765 0.000000 0.000000
-100.433503 88.668765 0.000000 0.000000
-98.452079 88.668765 0.000000 0.000000
-96.470655 88.668765 0.000000 0.000000
-94.489231 88.668765 0.000000 0.000000
-92.507807 88.668765 0.000000 0.000000
-90.526383 88.668765 0.000000 0.000000
-88.544959 88.668765 10.037146 1.135033
-86.563536 88.668765 10.183145 1.804277
-84.582112 88.668765 10.416871 1.029086
-82.600688 88.668765 10.505777 1.343548
-80.619264 88.668765 10.278145 2.050366
-78.637840 88.668765 10.179666 2.136395
-76.656416 88.668765 10.108382 1.800158
-74.674992 88.668765 10.305578 0.874758
-72.693568 88.668765 10.735871 1.563405
-70.712144 88.668765 10.660178 1.257915
-68.730720 88.668765 10.463957 1.452606
-66.749296 88.668765 10.644018 1.641074
-64.767872 88.668765 10.689278 1.008638
-62.786448 88.668765 10.714441 0.741590
-60.805024 88.668765 10.716249 1.007688
-58.823600 88.668765 11.155499 1.380794
-56.842176 88.668765 11.584719 1.272771
-54.860752 88.668765 11.369759 1.196782
-52.879328 88.668765 11.073895 1.108253
-50.897904 88.668765 11.445747 0.638097
-48.916480 88.668765 11.465487 0.961101
-46.935056 88.668765 11.138178 1.189678
-44.953632 88.668765 11.146961 1.067203
-42.972208 88.668765 10.997386 1.244066
-40.990784 88.668765 10.979172 1.279663
-39.009360 88.668765 11.286537 1.207719
-37.027936 88.668765 11.358953 1.097055
-35.046512 88.668765 11.133904 0.635384
-33.065088 88.668765 11.269159 1.086273
-31.083664 88.668765 11.579456 0.397223
-29.102240 88.668765 11.608708 -0.171273
-27.120816 88.668765 11.241600 0.944420
-25.139392 88.668765 11.050421 1.498651
-23.157968 88.668765 11.032393 1.277013
-21.176544 88.668765 11.411756 0.915323
-19.195120 88.668765 11.766292 0.727800
-17.213696 88.668765 11.466752 0.285398
-15.232272 88.668765 0.000000 0.000000
-13.250848 88.668765 0.000000 0.000000
-11.269424 88.668765 0.000000 0.000000
-9.288001 88.668765 0.000000 0.000000
-7.306577 88.668765 0.000000 0.000000
-5.325153 88.668765 11.471297 0.627145
-3.343729 88.668765 11.434363 1.076894
-1.362305 88.668765 11.609904 1.550147
0.619119 88.668765 12.018212 1.415876
2.600543 88.668765 11.726934 0.890670
4.581967 88.668765 11.571104 -0.219470
6.563391 88.668765 11.644732 0.079601
8.544815 88.668765 11.466550 0.800086
10.526239 88.668765 11.764200 1.085118
12.507663 88.668765 11.824080 0.840770
14.489087 88.668765 11.543141 0.270348
16.470511 88.668765 11.508179 0.615099
18.451935 88.668765 11.036890 0.964996
20.433359 88.668765 11.584937 0.682460
22.414783 88.668765 11.857697 1.058625
24.396207 88.668765 11.397363 0.183177
26.377631 88.668765 11.579490 0.181343
28.359055 88.668765 11.751161 0.412385
30.340479 88.668765 11.488636 -0.447216
32.321903 88.668765 11.254278 -0.184174
34.303327 88.668765 11.153607 0.246940
36.284751 88.668765 11.581642 0.337613
38.266175 88.668765 11.411386 -0.401567
40.247599 88.668765 11.030760 -0.260982
42.229023 88.668765 10.811439 0.441923
44.210447 88.668765 11.161164 0.201930
46.191871 88.668765 11.239169 0.126712
48.173295 88.668765 10.888565 -0.375018
50.154719 88.668765 11.024625 -0.932071
52.136143 88.668765 10.902666 -0.841441
54.117567 88.668765 10.729790 -0.600961
56.098991 88.668765 10.914589 -0.815199
58.080415 88.668765 11.010508 -0.173297
60.061839 88.668765 11.170285 -0.274155
62.043263 88.668765 11.201492 -0.094919
64.024687 88.668765 10.326679 0.219380
66.006110 88.668765 10.356579 -0.352963
67.987534 88.668765 0.000000 0.000000
-132.136287 86.687341 17.855532 -20.751078
-130.154863 86.687341 -0.500227 7.417876
-128.173439 86.687341 16.263306 8.563535
-126.192015 86.687341 9.796943 -0.003434
-124.210591 86.687341 10.630500 1.194135
-122.229167 86.687341 10.476732 0.492598
-120.247743 86.687341 10.390079 0.649741
-118.266319 86.687341 9.898438 0.263885
-116.284895 86.687341 10.104306 0.460596
-114.303471 86.687341 10.121370 0.524690
-112.322047 86.687341 0.000000 0.000000
-110.340623 86.687341 0.000000 0.000000
-108.359199 86.687341 0.000000 0.000000
-106.377775 86.687341 0.000000 0.000000
-104.396351 86.687341 0.000000 0.000000
-102.414927 86.687341 0.000000 0.000000
-100.433503 86.687341 0.000000 0.000000
-98.452079 86.687341 0.000000 0.000000
-96.470655 86.687341 0.000000 0.000000
-94.489231 86.687341 0.000000 0.000000
-92.507807 86.687341 0.000000 0.000000
-90.526383 86.687341 0.000000 0.000000
-88.544959 86.687341 10.364127 1.272983
-86.563536 86.687341 10.084016 0.980907
-84.582112 86.687341 10.299484 1.551850
-82.600688 86.687341 10.574879 1.307066
-80.619264 86.687341 10.548926 1.705726
-78.637840 86.687341 10.537116 1.409579
-76.656416 86.687341 10.267242 0.888404
-74.674992 86.687341 10.338702 1.354378
-72.693568 86.687341 10.754747 1.681411
-70.712144 86.687341 10.794033 1.623122
-68.730720 86.687341 10.649153 1.105635
-66.749296 86.687341 10.585431 0.987181
-64.767872 86.687341 10.595453 1.431623
-62.786448 86.687341 10.942964 1.336630
-60.805024 86.687341 11.236156 1.772716
-58.823600 86.687341 11.228262 1.269176
-56.842176 86.687341 11.265429 1.104935
-54.860752 86.687341 11.321633 0.888227
-52.879328 86.687341 11.172810 0.844386
-50.897904 86.687341 11.475677 0.964021
-48.916480 86.687341 11.517376 1.244606
-46.935056 86.687341 11.447054 0.829354
-44.953632 86.687341 11.355136 1.011105
-42.972208 86.687341 11.407798 1.184484
-40.990784 86.687341 11.086865 1.038914
-39.009360 86.687341 11.416045 1.960155
-37.027936 86.687341 11.595219 1.153446
-35.046512 86.687341 11.490657 0.608985
-33.065088 86.687341 11.766210 1.047203
-31.083664 86.687341 11.751098 1.066337
-29.102240 86.687341 11.457520 0.487318
-27.120816 86.687341 11.353365 0.908587
-25.139392 86.687341 11.370967 0.930223
-23.157968 86.687341 11.334804 0.737012
-21.176544 86.687341 11.421018 0.796306
-19.195120 86.687341 11.436250 1.017678
-17.213696 86.687341 11.595225 1.384975
-15.232272 86.687341 0.000000 0.000000
-13.250848 86.687341 0.000000 0.000000
-11.269424 86.687341 0.000000 0.000000
-9.288001 86.687341 0.000000 0.000000
-7.306577 86.687341 0.000000 0.000000
-5.325153 86.687341 11.682011 0.249421
-3.343729 86.687341 11.383269 1.100818
-1.362305 86.687341 11.617548 1.668223
0.619119 86.687341 11.757097 0.749935
2.600543 86.687341 11.731786 0.766213
4.581967 86.687341 11.879251 0.967832
6.563391 86.687341 11.676254 -0.021042
8.544815 86.687341 11.417128 0.592175
10.526239 86.687341 11.893627 0.755306
12.507663 86.687341 11.943136 0.890842
14.489087 86.687341 11.661038 0.506534
16.470511 86.687341 11.724929 0.919021
18.451935 86.687341 11.243129 0.219509
20.433359 86.687341 11.677560 0.057708
22.414783 86.687341 11.849656 0.672988
24.396207 86.687341 11.417827 0.683075
26.377631 86.687341 11.447579 0.232396
28.359055 86.687341 11.640607 0.410311
30.340479 86.687341 11.570259 -0.589046
32.321903 86.687341 11.413755 -0.683153
34.303327 86.687341 11.181321 0.209204
36.284751 86.687341 11.306583 -0.557994
38.266175 86.687341 11.069386 -0.421190
40.247599 86.687341 11.225945 0.003247
42.229023 86.687341 11.212851 0.196893
44.210447 86.687341 11.334511 -0.264323
46.191871 86.687341 11.433889 -0.453063
48.173295 86.687341 11.182432 -0.441734
50.154719 86.687341 11.188647 -0.784641
52.136143 86.687341 11.013346 -0.187367
54.117567 86.687341 11.118930 -0.188998
56.098991 86.687341 11.133260 -0.353393
58.080415 86.687341 10.887585 -0.491666
60.061839 86.687341 11.032729 0.255759
62.043263 86.687341 10.975725 -0.247356
64.024687 86.687341 10.312381 0.704380
66.006110 86.687341 10.041670 1.208673
67.987534 86.687341 0.000000 0.000000
-132.136287 84.705917 25.829760 34.574226
-130.154863 84.705917 26.552122 33.101524
-128.173439 84.705917 9.068058 -10.612075
-126.192015 84.705917 9.786555 0.761018
-124.210591 84.705917 10.255725 0.598537
-122.229167 84.705917 10.219294 0.975027
-120.247743 84.705917 10.235380 0.844044
-118.266319 84.705917 10.429313 0.700722
-116.284895 84.705917 10.243661 0.349470
-114.303471 84.705917 10.207488 1.302291
-112.322047 84.705917 0.000000 0.000000
-110.340623 84.705917 0.000000 0.000000
-108.359199 84.705917 0.000000 0.000000
-106.377775 84.705917 0.000000 0.000000
-104.396351 84.705917 0.000000 0.000000
-102.414927 84.705917 0.000000 0.000000
-100.433503 84.705917 0.000000 0.000000
-98.452079 84.705917 0.000000 0.000000
-96.470655 84.705917 0.000000 0.000000
-94.489231 84.705917 0.000000 0.000000