TITLE = "B00001"
VARIABLES = "position", "position(2)", "Vx", "Vy"
ZONE T="Frame 0", I=51, J=39
-131.145575 97.585173 10.740659 0.414320
-127.182727 97.585173 11.516561 0.407866
-123.219879 97.585173 11.410537 0.494897
-119.257031 97.585173 11.178571 0.627792
-115.294183 97.585173 11.134094 0.604046
-111.331335 97.585173 0.000000 0.000000
-107.368487 97.585173 0.000000 0.000000
-103.405639 97.585173 0.000000 0.000000
-99.442791 97.585173 0.000000 0.000000
-95.479943 97.585173 0.000000 0.000000
-91.517095 97.585173 0.000000 0.000000
-87.554247 97.585173 11.390312 0.401951
-83.591400 97.585173 11.479169 0.345101
-79.628552 97.585173 11.322279 0.217211
-75.665704 97.585173 11.353349 0.322465
-71.702856 97.585173 11.300986 0.380361
-67.740008 97.585173 11.354590 0.316234
-63.777160 97.585173 11.574438 0.176250
-59.814312 97.585173 11.466230 -0.071577
-55.851464 97.585173 11.391260 0.182971
-51.888616 97.585173 11.166112 0.130812
-47.925768 97.585173 11.471092 -0.007738
-43.962920 97.585173 11.306501 0.068005
-40.000072 97.585173 11.559121 0.090373
-36.037224 97.585173 11.430925 -0.233455
-32.074376 97.585173 11.346179 -0.278321
-28.111528 97.585173 11.606601 0.138674
-24.148680 97.585173 11.152654 -0.185125
-20.185832 97.585173 11.289022 0.133083
-16.222984 97.585173 11.523264 -0.270722
-12.260136 97.585173 0.000000 0.000000
-8.297289 97.585173 0.000000 0.000000
-4.334441 97.585173 0.000000 0.000000
-0.371593 97.585173 11.072284 0.054553
3.591255 97.585173 11.182374 -0.030351
7.554103 97.585173 11.045535 -0.122194
11.516951 97.585173 11.070968 -0.107439
15.479799 97.585173 10.947809 0.027800
19.442647 97.585173 11.024342 0.095321
23.405495 97.585173 10.979330 0.011673
27.368343 97.585173 10.961456 0.174601
31.331191 97.585173 10.963661 0.263365
35.294039 97.585173 10.973991 0.124207
39.256887 97.585173 11.038817 -0.044786
43.219735 97.585173 10.966561 -0.088544
47.182583 97.585173 11.036545 -0.285466
51.145431 97.585173 11.082857 0.210847
55.108279 97.585173 11.012132 0.063521
59.071127 97.585173 10.918509 -0.030232
63.033975 97.585173 11.040054 0.188370
66.996822 97.585173 10.951813 0.051813
-131.145575 93.622325 16.678169 4.764358
-127.182727 93.622325 11.157033 0.510344
-123.219879 93.622325 11.475513 0.519039
-119.257031 93.622325 11.394121 0.142058
-115.294183 93.622325 11.258335 0.465850
-111.331335 93.622325 0.000000 0.000000
-107.368487 93.622325 0.000000 0.000000
-103.405639 93.622325 0.000000 0.000000
-99.442791 93.622325 0.000000 0.000000
-95.479943 93.622325 0.000000 0.000000
-91.517095 93.622325 0.000000 0.000000
-87.554247 93.622325 11.429472 0.345322
-83.591400 93.622325 11.406140 0.347913
-79.628552 93.622325 11.528227 0.328860
-75.665704 93.622325 11.532013 0.212270
-71.702856 93.622325 11.555614 0.354035
-67.740008 93.622325 11.324718 0.181798
-63.777160 93.622325 11.543180 0.417636
-59.814312 93.622325 11.250299 -0.062160
-55.851464 93.622325 11.508966 0.174759
-51.888616 93.622325 11.313074 0.145199
-47.925768 93.622325 11.194177 0.104424
-43.962920 93.622325 11.471454 0.109157
-40.000072 93.622325 11.234011 0.124045
-36.037224 93.622325 11.735572 0.071126
-32.074376 93.622325 11.146678 0.015580
-28.111528 93.622325 11.561040 -0.079134
-24.148680 93.622325 11.281946 0.006016
-20.185832 93.622325 11.272946 0.070909
-16.222984 93.622325 11.299032 -0.162491
-12.260136 93.622325 0.000000 0.000000
-8.297289 93.622325 0.000000 0.000000
-4.334441 93.622325 0.000000 0.000000
-0.371593 93.622325 11.012088 -0.123954
3.591255 93.622325 11.036106 -0.140881
7.554103 93.622325 11.007525 -0.132893
11.516951 93.622325 11.070527 0.001383
15.479799 93.622325 11.105941 0.192495
19.442647 93.622325 10.912823 0.226148
23.405495 93.622325 11.108062 -0.057940
27.368343 93.622325 11.081946 -0.144566
31.331191 93.622325 11.105864 0.127115
35.294039 93.622325 10.910109 0.099143
39.256887 93.622325 10.809081 -0.062322
43.219735 93.622325 10.920793 0.112652
47.182583 93.622325 11.011519 0.101529
51.145431 93.622325 11.076396 0.150191
55.108279 93.622325 11.009680 0.109033
59.071127 93.622325 10.937002 0.179828
63.033975 93.622325 10.993896 0.089838
66.996822 93.622325 10.969564 -0.107368
-131.145575 89.659477 7.519486 -17.687763
-127.182727 89.659477 10.965667 0.661279
-123.219879 89.659477 11.499285 0.834495
-119.257031 89.659477 11.432145 0.671568
-115.294183 89.659477 11.141549 0.637258
-111.331335 89.659477 0.000000 0.000000
-107.368487 89.659477 0.000000 0.000000
-103.405639 89.659477 0.000000 0.000000
-99.442791 89.659477 0.000000 0.000000
-95.479943 89.659477 0.000000 0.000000
-91.517095 89.659477 0.000000 0.000000
-87.554247 89.659477 11.428199 0.401316
-83.591400 89.659477 11.561543 0.473578
-79.628552 89.659477 11.592318 0.184536
-75.665704 89.659477 11.298564 0.278089
-71.702856 89.659477 11.520111 0.255024
-67.740008 89.659477 11.480268 0.211029
-63.777160 89.659477 11.392306 0.276041
-59.814312 89.659477 11.331594 0.241604
-55.851464 89.659477 11.620296 -0.090127
-51.888616 89.659477 11.184112 0.132827
-47.925768 89.659477 11.570504 0.123045
-43.962920 89.659477 11.333029 0.017357
-40.000072 89.659477 11.534061 -0.060930
-36.037224 89.659477 11.289499 -0.078246
-32.074376 89.659477 11.335668 -0.151108
-28.111528 89.659477 11.219012 0.039889
-24.148680 89.659477 11.265889 -0.172133
-20.185832 89.659477 11.159277 -0.046550
-16.222984 89.659477 11.139335 -0.153897
-12.260136 89.659477 0.000000 0.000000
-8.297289 89.659477 0.000000 0.000000
-4.334441 89.659477 0.000000 0.000000
-0.371593 89.659477 11.025099 -0.138384
3.591255 89.659477 11.112248 -0.111041
7.554103 89.659477 11.155970 -0.128625
11.516951 89.659477 10.941897 -0.117497
15.479799 89.659477 11.035660 0.218575
19.442647 89.659477 10.996118 0.016474
23.405495 89.659477 11.008728 -0.051439
27.368343 89.659477 10.914227 -0.014884
31.331191 89.659477 11.012847 0.078199
35.294039 89.659477 10.919807 0.107633
39.256887 89.659477 10.955980 0.044632
43.219735 89.659477 11.030213 -0.173513
47.182583 89.659477 10.983247 0.181879
51.145431 89.659477 11.095757 0.100311
55.108279 89.659477 10.976542 -0.165058
59.071127 89.659477 10.946797 -0.128375
63.033975 89.659477 10.726723 -0.206449
66.996822 89.659477 11.004852 -0.242100
-131.145575 85.696629 11.192933 0.227071
-127.182727 85.696629 11.278916 0.562363
-123.219879 85.696629 11.029148 0.464992
-119.257031 85.696629 11.156093 0.380749
-115.294183 85.696629 11.235478 0.556133
-111.331335 85.696629 0.000000 0.000000
-107.368487 85.696629 0.000000 0.000000
-103.405639 85.696629 0.000000 0.000000
-99.442791 85.696629 0.000000 0.000000
-95.479943 85.696629 0.000000 0.000000
-91.517095 85.696629 0.000000 0.000000
-87.554247 85.696629 11.578153 0.405117
-83.591400 85.696629 11.397671 0.385566
-79.628552 85.696629 11.395837 0.363256
-75.665704 85.696629 11.654480 0.336401
-71.702856 85.696629 11.668667 0.325626
-67.740008 85.696629 11.583508 0.223517
-63.777160 85.696629 11.601995 0.207988
-59.814312 85.696629 11.659636 0.128450
-55.851464 85.696629 11.545629 0.141173
-51.888616 85.696629 11.278779 0.089621
-47.925768 85.696629 11.464269 -0.116486
-43.962920 85.696629 11.607625 -0.179060
-40.000072 85.696629 11.515614 -0.102703
-36.037224 85.696629 11.161340 -0.105589
-32.074376 85.696629 11.348396 -0.179353
-28.111528 85.696629 11.324183 -0.159818
-24.148680 85.696629 11.325339 -0.209057
-20.185832 85.696629 11.268323 -0.174905
-16.222984 85.696629 11.308331 -0.132045
-12.260136 85.696629 0.000000 0.000000
-8.297289 85.696629 0.000000 0.000000
-4.334441 85.696629 0.000000 0.000000
-0.371593 85.696629 11.076406 -0.163371
3.591255 85.696629 11.146869 -0.074355
7.554103 85.696629 11.041088 -0.155917
11.516951 85.696629 11.120667 0.002956
15.479799 85.696629 11.083301 0.054818
19.442647 85.696629 10.990271 -0.161069
23.405495 85.696629 11.189209 -0.210042
27.368343 85.696629 11.056138 -0.042690
31.331191 85.696629 10.987094 -0.143386
35.294039 85.696629 10.835918 -0.176279
39.256887 85.696629 10.868558 0.088274
43.219735 85.696629 10.912369 0.026715
47.182583 85.696629 10.966388 -0.037350
51.145431 85.696629 10.922839 -0.082629
55.108279 85.696629 10.890487 0.071759
59.071127 85.696629 10.833882 0.005810
63.033975 85.696629 10.997031 0.294912
66.996822 85.696629 10.837678 0.244819
-131.145575 81.733781 11.531345 0.615860
-127.182727 81.733781 11.402373 0.484403
-123.219879 81.733781 10.869088 0.667376
-119.257031 81.733781 11.079437 0.567963
-115.294183 81.733781 11.023192 0.522715
-111.331335 81.733781 0.000000 0.000000
-107.368487 81.733781 0.000000 0.000000
-103.405639 81.733781 0.000000 0.000000
-99.442791 81.733781 0.000000 0.000000
-95.479943 81.733781 0.000000 0.000000
-91.517095 81.733781 0.000000 0.000000
-87.554247 81.733781 11.599353 0.446085
-83.591400 81.733781 11.471945 0.396275
-79.628552 81.733781 11.489248 0.180892
-75.665704 81.733781 11.682330 0.205573
-71.702856 81.733781 11.546660 0.151986
-67.740008 81.733781 11.723905 0.051544
-63.777160 81.733781 11.669936 0.235182
-59.814312 81.733781 11.496672 0.187797
-55.851464 81.733781 11.463552 -0.070802
-51.888616 81.733781 11.523854 0.108393
-47.925768 81.733781 11.523235 -0.046759
-43.962920 81.733781 11.523373 -0.138049
-40.000072 81.733781 11.451114 -0.077299
-36.037224 81.733781 11.382199 -0.170256
-32.074376 81.733781 11.283715 -0.218730
-28.111528 81.733781 11.343858 0.056584
-24.148680 81.733781 11.307595 -0.149737
-20.185832 81.733781 11.228648 -0.085674
-16.222984 81.733781 11.152678 -0.144895
-12.260136 81.733781 0.000000 0.000000
-8.297289 81.733781 0.000000 0.000000
-4.334441 81.733781 0.000000 0.000000
-0.371593 81.733781 11.045568 -0.260719
3.591255 81.733781 11.043884 -0.113679
7.554103 81.733781 10.958938 0.079366
11.516951 81.733781 10.992823 -0.157063
15.479799 81.733781 11.085328 -0.146214
19.442647 81.733781 11.044026 -0.059751
23.405495 81.733781 10.986363 -0.139042
27.368343 81.733781 11.029044 -0.052428
31.331191 81.733781 10.999704 -0.166326
35.294039 81.733781 10.853296 0.019394
39.256887 81.733781 10.980456 0.016065
43.219735 81.733781 11.045338 -0.222498
47.182583 81.733781 10.871962 0.051938
51.145431 81.733781 11.107379 -0.156501
55.108279 81.733781 10.961003 0.145853
59.071127 81.733781 10.915442 0.166884
63.033975 81.733781 10.810596 -0.016469
66.996822 81.733781 10.956539 0.123515
-131.145575 77.770933 11.405804 0.679883
-127.182727 77.770933 11.100882 0.602835
-123.219879 77.770933 11.061011 0.454877
-119.257031 77.770933 11.021529 0.617001
-115.294183 77.770933 11.172890 0.770755
-111.331335 77.770933 0.000000 0.000000
-107.368487 77.770933 0.000000 0.000000
-103.405639 77.770933 0.000000 0.000000
-99.442791 77.770933 0.000000 0.000000
-95.479943 77.770933 0.000000 0.000000
-91.517095 77.770933 11.504247 0.402735
-87.554247 77.770933 11.524011 0.584363
-83.591400 77.770933 11.638905 0.442574
-79.628552 77.770933 11.605771 0.379426
-75.665704 77.770933 11.811482 0.020110
-71.702856 77.770933 11.697655 0.238699
-67.740008 77.770933 11.765508 0.179717
-63.777160 77.770933 11.648382 0.030186
-59.814312 77.770933 11.607685 0.069556
-55.851464 77.770933 11.534825 0.045840
-51.888616 77.770933 11.464211 -0.069574
-47.925768 77.770933 11.599468 -0.184886
-43.962920 77.770933 11.587234 -0.124190
-40.000072 77.770933 11.517118 -0.236091
-36.037224 77.770933 11.430735 -0.219315
-32.074376 77.770933 11.449829 -0.350424
-28.111528 77.770933 11.254527 -0.325317
-24.148680 77.770933 11.423420 -0.255477
-20.185832 77.770933 11.273973 -0.246059
-16.222984 77.770933 11.119734 -0.167291
-12.260136 77.770933 0.000000 0.000000
-8.297289 77.770933 0.000000 0.000000
-4.334441 77.770933 0.000000 0.000000
-0.371593 77.770933 11.002086 -0.209940
3.591255 77.770933 11.083051 -0.148861
7.554103 77.770933 11.114969 -0.254660
11.516951 77.770933 10.919511 -0.070454
15.479799 77.770933 10.942994 -0.038755
19.442647 77.770933 10.927125 -0.218668
23.405495 77.770933 10.899778 -0.123833
27.368343 77.770933 10.913109 0.003418
31.331191 77.770933 10.951372 0.022559
35.294039 77.770933 10.904309 -0.113686
39.256887 77.770933 10.893492 0.062878
43.219735 77.770933 10.965124 0.097434
47.182583 77.770933 10.940675 0.150577
51.145431 77.770933 10.899927 -0.088531
55.108279 77.770933 10.910316 -0.076701
59.071127 77.770933 10.928691 -0.232447
63.033975 77.770933 11.057263 0.189784
66.996822 77.770933 10.815207 0.062412
-131.145575 73.808085 11.692949 0.273653
-127.182727 73.808085 11.381664 0.527198
-123.219879 73.808085 10.956048 0.668738
-119.257031 73.808085 11.276154 0.521411
-115.294183 73.808085 11.191311 0.530675
-111.331335 73.808085 0.000000 0.000000
-107.368487 73.808085 0.000000 0.000000
-103.405639 73.808085 0.000000 0.000000
-99.442791 73.808085 0.000000 0.000000
-95.479943 73.808085 0.000000 0.000000
-91.517095 73.808085 11.586916 0.416447
-87.554247 73.808085 11.765284 0.409501
-83.591400 73.808085 11.601016 0.501324
-79.628552 73.808085 11.944591 0.298021
-75.665704 73.808085 11.788142 0.278880
-71.702856 73.808085 11.703243 0.164184
-67.740008 73.808085 11.635955 0.208669
-63.777160 73.808085 11.691390 0.174223
-59.814312 73.808085 11.596646 0.121439
-55.851464 73.808085 11.640066 0.022469
-51.888616 73.808085 11.550663 0.061796
-47.925768 73.808085 11.437192 -0.047020
-43.962920 73.808085 11.591835 -0.178316
-40.000072 73.808085 11.519027 -0.131967
-36.037224 73.808085 11.431402 -0.284460
-32.074376 73.808085 11.342927 -0.225823
-28.111528 73.808085 11.418310 -0.404942
-24.148680 73.808085 11.330616 -0.138527
-20.185832 73.808085 11.309478 -0.215688
-16.222984 73.808085 11.128269 -0.261718
-12.260136 73.808085 0.000000 0.000000
-8.297289 73.808085 0.000000 0.000000
-4.334441 73.808085 0.000000 0.000000
-0.371593 73.808085 11.094912 -0.259176
3.591255 73.808085 11.010982 -0.128461
7.554103 73.808085 11.142737 -0.135225
11.516951 73.808085 11.049801 -0.104624
15.479799 73.808085 10.941446 -0.239149
19.442647 73.808085 11.025255 0.006762
23.405495 73.808085 10.922198 0.164827
27.368343 73.808085 10.894977 -0.316961
31.331191 73.808085 10.828444 -0.063581
35.294039 73.808085 11.086437 0.021692
39.256887 73.808085 10.901625 0.172062
43.219735 73.808085 10.826017 -0.079617
47.182583 73.808085 10.894753 0.206331
51.145431 73.808085 10.928995 -0.051171
55.108279 73.808085 10.794238 -0.149305
59.071127 73.808085 11.030924 0.148682
63.033975 73.808085 10.958632 -0.205180
66.996822 73.808085 10.919793 -0.292515
-131.145575 69.845237 17.146452 15.503945
-127.182727 69.845237 16.404034 -4.199400
-123.219879 69.845237 10.914912 1.015198
-119.257031 69.845237 11.101270 0.775955
-115.294183 69.845237 11.400349 0.729688
-111.331335 69.845237 0.000000 0.000000
-107.368487 69.845237 0.000000 0.000000
-103.405639 69.845237 0.000000 0.000000
-99.442791 69.845237 0.000000 0.000000
-95.479943 69.845237 0.000000 0.000000
-91.517095 69.845237 11.523546 0.793491
-87.554247 69.845237 11.788816 0.568609
-83.591400 69.845237 11.847653 0.511872
-79.628552 69.845237 11.642034 0.369536
-75.665704 69.845237 11.710884 -0.190373
-71.702856 69.845237 11.925210 0.293618
-67.740008 69.845237 11.883987 -0.065901
-63.777160 69.845237 11.633263 0.027727
-59.814312 69.845237 11.787956 -0.136527
-55.851464 69.845237 11.791900 -0.336895
-51.888616 69.845237 11.630959 -0.170844
-47.925768 69.845237 11.558058 -0.199596
-43.962920 69.845237 11.739964 -0.277573
-40.000072 69.845237 11.615178 -0.267008
-36.037224 69.845237 11.551044 -0.177238
-32.074376 69.845237 11.429865 -0.324761
-28.111528 69.845237 11.454015 -0.294011
-24.148680 69.845237 11.235999 -0.277250
-20.185832 69.845237 11.212994 -0.298853
-16.222984 69.845237 11.376369 -0.318383
-12.260136 69.845237 0.000000 0.000000
-8.297289 69.845237 0.000000 0.000000
-4.334441 69.845237 0.000000 0.000000
-0.371593 69.845237 11.030949 -0.381294
3.591255 69.845237 10.917043 -0.254386
7.554103 69.845237 10.979533 -0.272892
11.516951 69.845237 10.912275 -0.228475
15.479799 69.845237 10.770288 -0.177213
19.442647 69.845237 10.963830 -0.155436
23.405495 69.845237 11.031081 -0.073410
27.368343 69.845237 10.928542 -0.067627
31.331191 69.845237 10.837392 -0.211944
35.294039 69.845237 10.951275 -0.097560
39.256887 69.845237 11.023387 0.292654
43.219735 69.845237 10.948923 -0.006813
47.182583 69.845237 10.993602 0.091500
51.145431 69.845237 10.800072 -0.264801
55.108279 69.845237 10.849428 0.243850
59.071127 69.845237 10.871532 -0.013338
63.033975 69.845237 11.028569 0.073950
66.996822 69.845237 10.813559 0.094845
-131.145575 65.882389 9.122115 3.771928
-127.182727 65.882389 11.477059 0.645543
-123.219879 65.882389 11.120954 0.815965
-119.257031 65.882389 11.159675 0.851443
-115.294183 65.882389 11.462825 0.597703
-111.331335 65.882389 0.000000 0.000000
-107.368487 65.882389 0.000000 0.000000
-103.405639 65.882389 0.000000 0.000000
-99.442791 65.882389 0.000000 0.000000
-95.479943 65.882389 0.000000 0.000000
-91.517095 65.882389 11.744690 0.590714
-87.554247 65.882389 11.849541 0.463254
-83.591400 65.882389 11.523370 0.507343
-79.628552 65.882389 11.863696 0.416328
-75.665704 65.882389 11.820176 -0.007760
-71.702856 65.882389 11.832346 -0.059218
-67.740008 65.882389 11.844409 0.044300
-63.777160 65.882389 11.822833 -0.138997
-59.814312 65.882389 11.768992 -0.087862
-55.851464 65.882389 11.834944 0.132884
-51.888616 65.882389 11.673622 -0.191181
-47.925768 65.882389 11.619420 -0.225839
-43.962920 65.882389 11.603909 -0.085002
-40.000072 65.882389 11.510369 -0.399508
-36.037224 65.882389 11.498217 -0.385336
-32.074376 65.882389 11.421800 -0.357430
-28.111528 65.882389 11.487489 -0.265442
-24.148680 65.882389 11.206009 -0.477062
-20.185832 65.882389 11.130641 -0.340513
-16.222984 65.882389 11.143369 -0.275987
-12.260136 65.882389 0.000000 0.000000
-8.297289 65.882389 0.000000 0.000000
-4.334441 65.882389 11.120790 -0.250611
-0.371593 65.882389 11.019733 -0.322048
3.591255 65.882389 10.861036 -0.227186
7.554103 65.882389 10.880465 -0.225935
11.516951 65.882389 10.879301 -0.143429
15.479799 65.882389 10.933114 -0.404781
19.442647 65.882389 11.059575 -0.250629
23.405495 65.882389 11.008386 -0.098650
27.368343 65.882389 10.876196 -0.040227
31.331191 65.882389 10.780726 -0.007261
35.294039 65.882389 10.829500 -0.210190
39.256887 65.882389 10.993837 -0.099580
43.219735 65.882389 10.962133 0.271201
47.182583 65.882389 10.933003 0.174106
51.145431 65.882389 10.837148 -0.131169
55.108279 65.882389 10.984985 -0.247776
59.071127 65.882389 10.938265 0.058758
63.033975 65.882389 10.973948 -0.152668
66.996822 65.882389 10.800107 0.243017
-131.145575 61.919541 15.421061 0.471395
-127.182727 61.919541 11.051054 0.641159
-123.219879 61.919541 10.944014 0.796561
-119.257031 61.919541 11.100026 0.740522
-115.294183 61.919541 11.243575 0.833835
-111.331335 61.919541 0.000000 0.000000
-107.368487 61.919541 0.000000 0.000000
-103.405639 61.919541 0.000000 0.000000
-99.442791 61.919541 0.000000 0.000000
-95.479943 61.919541 0.000000 0.000000
-91.517095 61.919541 11.912737 0.708195
-87.554247 61.919541 11.596126 0.708100
-83.591400 61.919541 12.023523 0.532641
-79.628552 61.919541 11.855841 0.597496
-75.665704 61.919541 11.943653 0.214127
-71.702856 61.919541 11.857092 0.024885
-67.740008 61.919541 12.026556 0.017615
-63.777160 61.919541 11.974082 -0.218604
-59.814312 61.919541 11.861321 0.036768
-55.851464 61.919541 11.792360 -0.310488
-51.888616 61.919541 11.725100 -0.362688
-47.925768 61.919541 11.684817 -0.256519
-43.962920 61.919541 11.680882 -0.443501
-40.000072 61.919541 11.647994 -0.210912
-36.037224 61.919541 11.656227 -0.238503
-32.074376 61.919541 11.538010 -0.356082
-28.111528 61.919541 11.454868 -0.387144
-24.148680 61.919541 11.146965 -0.404373
-20.185832 61.919541 11.378618 -0.407719
-16.222984 61.919541 11.264592 -0.565072
-12.260136 61.919541 0.000000 0.000000
-8.297289 61.919541 0.000000 0.000000
-4.334441 61.919541 10.954884 -0.433238
-0.371593 61.919541 10.912924 -0.403086
3.591255 61.919541 10.904943 -0.262937
7.554103 61.919541 10.963524 -0.230767
11.516951 61.919541 10.916322 -0.113297
15.479799 61.919541 10.873109 -0.243444
19.442647 61.919541 10.866727 -0.351940
23.405495 61.919541 10.924857 -0.133125
27.368343 61.919541 10.790108 -0.112850
31.331191 61.919541 10.795360 0.125596
35.294039 61.919541 10.893706 -0.303487
39.256887 61.919541 10.973927 -0.084062
43.219735 61.919541 11.001719 -0.156933
47.182583 61.919541 10.913751 -0.123927
51.145431 61.919541 10.829804 0.085964
55.108279 61.919541 11.062354 -0.014516
59.071127 61.919541 11.071264 -0.171292
63.033975 61.919541 10.807268 0.498074
66.996822 61.919541 10.812735 0.038371
-131.145575 57.956694 -15.425410 -12.237185
-127.182727 57.956694 11.061900 0.700828
-123.219879 57.956694 11.150202 0.922812
-119.257031 57.956694 10.976453 1.100340
-115.294183 57.956694 11.090496 1.073228
-111.331335 57.956694 0.000000 0.000000
-107.368487 57.956694 0.000000 0.000000
-103.405639 57.956694 0.000000 0.000000
-99.442791 57.956694 0.000000 0.000000
-95.479943 57.956694 11.674962 0.963744
-91.517095 57.956694 11.987103 0.725087
-87.554247 57.956694 11.877053 0.627929
-83.591400 57.956694 12.140618 0.384660
-79.628552 57.956694 12.076373 0.106322
-75.665704 57.956694 12.003731 0.443908
-71.702856 57.956694 12.085561 0.114567
-67.740008 57.956694 12.091215 0.049500
-63.777160 57.956694 12.012265 -0.211587
-59.814312 57.956694 11.776168 -0.108679
-55.851464 57.956694 11.781945 -0.014073
-51.888616 57.956694 11.930970 -0.123643
-47.925768 57.956694 11.860801 -0.334756
-43.962920 57.956694 11.622484 -0.317888
-40.000072 57.956694 11.724201 -0.338287
-36.037224 57.956694 11.647491 -0.446503
-32.074376 57.956694 11.571293 -0.258225
-28.111528 57.956694 11.652533 -0.445069
-24.148680 57.956694 11.352910 -0.531125
-20.185832 57.956694 11.112137 -0.516669
-16.222984 57.956694 11.123523 -0.466284
-12.260136 57.956694 0.000000 0.000000
-8.297289 57.956694 0.000000 0.000000
-4.334441 57.956694 11.030982 -0.398571
-0.371593 57.956694 10.847672 -0.468690
3.591255 57.956694 10.835598 -0.532555
7.554103 57.956694 10.952018 -0.134129
11.516951 57.956694 10.675192 -0.104506
15.479799 57.956694 10.820286 -0.386041
19.442647 57.956694 10.761660 -0.060005
23.405495 57.956694 10.760592 -0.040284
27.368343 57.956694 10.893743 0.035170
31.331191 57.956694 10.990400 0.126752
35.294039 57.956694 10.792139 -0.077911
39.256887 57.956694 10.843159 -0.127187
43.219735 57.956694 10.826485 -0.062123
47.182583 57.956694 10.895597 -0.233845
51.145431 57.956694 10.868346 -0.274064
55.108279 57.956694 10.812431 0.187596
59.071127 57.956694 10.798090 0.225893
63.033975 57.956694 10.943599 -0.050133
66.996822 57.956694 11.018728 0.083345
-131.145575 53.993846 10.879383 1.751219
-127.182727 53.993846 10.188709 0.490608
-123.219879 53.993846 11.168411 1.318730
-119.257031 53.993846 10.868337 0.994407
-115.294183 53.993846 11.104511 1.415301
-111.331335 53.993846 0.000000 0.000000
-107.368487 53.993846 0.000000 0.000000
-103.405639 53.993846 0.000000 0.000000
-99.442791 53.993846 0.000000 0.000000
-95.479943 53.993846 12.056474 1.091824
-91.517095 53.993846 12.178598 0.804985
-87.554247 53.993846 12.070266 0.813008
-83.591400 53.993846 12.125303 0.432601
-79.628552 53.993846 12.342670 0.579588
-75.665704 53.993846 12.172561 0.336924
-71.702856 53.993846 12.058798 0.231859
-67.740008 53.993846 12.102823 0.111060
-63.777160 53.993846 12.033634 -0.108699
-59.814312 53.993846 12.027491 -0.208092
-55.851464 53.993846 11.860601 -0.294851
-51.888616 53.993846 11.890115 -0.422684
-47.925768 53.993846 11.883563 -0.372036
-43.962920 53.993846 11.729255 -0.543665
-40.000072 53.993846 11.696531 -0.393211
-36.037224 53.993846 11.707541 -0.451821
-32.074376 53.993846 11.676035 -0.508326
-28.111528 53.993846 11.502138 -0.507389
-24.148680 53.993846 11.248964 -0.625475
-20.185832 53.993846 11.419910 -0.565035
-16.222984 53.993846 10.946048 -0.611248
-12.260136 53.993846 11.107890 -0.633156
-8.297289 53.993846 0.000000 0.000000
-4.334441 53.993846 10.927551 -0.530443
-0.371593 53.993846 10.864268 -0.507680
3.591255 53.993846 10.785489 -0.208564
7.554103 53.993846 10.811055 -0.105252
11.516951 53.993846 10.805060 0.013313
15.479799 53.993846 10.698017 -0.393746
19.442647 53.993846 10.843015 -0.147078
23.405495 53.993846 10.829862 -0.147213
27.368343 53.993846 10.875727 -0.083320
31.331191 53.993846 10.915582 -0.102805
35.294039 53.993846 10.861096 0.119573
39.256887 53.993846 10.914302 -0.236533
43.219735 53.993846 10.810088 0.164496
47.182583 53.993846 10.917253 -0.335221
51.145431 53.993846 10.900364 -0.403492
55.108279 53.993846 10.992336 -0.103739
59.071127 53.993846 10.759315 -0.162213
63.033975 53.993846 10.719225 -0.181143
66.996822 53.993846 10.682179 0.004296
-131.145575 50.030998 -12.589754 -2.172807
-127.182727 50.030998 5.297823 -12.022531
-123.219879 50.030998 10.709220 0.934097
-119.257031 50.030998 10.688863 1.203134
-115.294183 50.030998 10.767227 1.509545
-111.331335 50.030998 0.000000 0.000000
-107.368487 50.030998 0.000000 0.000000
-103.405639 50.030998 0.000000 0.000000
-99.442791 50.030998 0.000000 0.000000
-95.479943 50.030998 12.199729 1.472371
-91.517095 50.030998 12.116378 1.177273
-87.554247 50.030998 12.463717 0.797105
-83.591400 50.030998 12.348930 0.775197
-79.628552 50.030998 12.334835 0.155688
-75.665704 50.030998 12.213737 0.275528
-71.702856 50.030998 12.306561 0.095900
-67.740008 50.030998 12.095913 -0.108484
-63.777160 50.030998 12.114547 -0.187197
-59.814312 50.030998 12.051012 -0.232131
-55.851464 50.030998 11.932734 -0.535988
-51.888616 50.030998 11.859776 -0.248317
-47.925768 50.030998 11.917015 -0.545912
-43.962920 50.030998 11.839314 -0.363937
-40.000072 50.030998 11.654405 -0.636029
-36.037224 50.030998 11.713041 -0.517857
-32.074376 50.030998 11.779998 -0.718889
-28.111528 50.030998 11.415593 -0.628727
-24.148680 50.030998 11.313622 -0.715838
-20.185832 50.030998 11.375535 -0.782770
-16.222984 50.030998 11.505387 -0.653850
-12.260136 50.030998 11.184690 -0.704012
-8.297289 50.030998 0.000000 0.000000
-4.334441 50.030998 10.904613 -0.467555
-0.371593 50.030998 10.676768 -0.477483
3.591255 50.030998 10.613381 -0.160044
7.554103 50.030998 10.479874 -0.143038
11.516951 50.030998 10.595941 -0.243993
15.479799 50.030998 10.771474 -0.316713
19.442647 50.030998 10.752840 0.192630
23.405495 50.030998 10.699087 -0.106711
27.368343 50.030998 10.922683 0.024524
31.331191 50.030998 10.894500 -0.228550
35.294039 50.030998 10.811908 -0.114460
39.256887 50.030998 10.770702 -0.030909
43.219735 50.030998 11.038061 0.037326
47.182583 50.030998 10.922577 -0.312069
51.145431 50.030998 10.776675 -0.336771
55.108279 50.030998 10.817164 -0.116153
59.071127 50.030998 10.780129 -0.147263
63.033975 50.030998 10.552480 0.344743
66.996822 50.030998 11.051862 0.513628
-131.145575 46.068150 10.391989 0.978332
-127.182727 46.068150 15.099510 -13.141680
-123.219879 46.068150 10.590371 0.974612
-119.257031 46.068150 10.552426 1.037888
-115.294183 46.068150 10.830209 1.267821
-111.331335 46.068150 10.873251 1.697897
-107.368487 46.068150 0.000000 0.000000
-103.405639 46.068150 0.000000 0.000000
-99.442791 46.068150 0.000000 0.000000
-95.479943 46.068150 12.304563 1.364560
-91.517095 46.068150 12.499319 0.893166
-87.554247 46.068150 12.681256 0.685541
-83.591400 46.068150 12.884199 0.570983
-79.628552 46.068150 12.380926 0.384777
-75.665704 46.068150 12.474029 0.255820
-71.702856 46.068150 12.395074 0.124378
-67.740008 46.068150 12.239366 -0.143033
-63.777160 46.068150 12.345143 -0.251866
-59.814312 46.068150 11.975461 -0.310534
-55.851464 46.068150 12.176908 -0.376880
-51.888616 46.068150 12.040993 -0.242087
-47.925768 46.068150 11.985485 -0.377699
-43.962920 46.068150 11.924511 -0.659164
-40.000072 46.068150 11.830519 -0.630671
-36.037224 46.068150 11.443268 -0.623411
-32.074376 46.068150 11.642209 -0.783927
-28.111528 46.068150 11.630406 -0.782889
-24.148680 46.068150 11.460894 -0.746547
-20.185832 46.068150 11.358984 -0.700088
-16.222984 46.068150 11.053072 -0.902447
-12.260136 46.068150 11.010924 -0.844426
-8.297289 46.068150 0.000000 0.000000
-4.334441 46.068150 10.603451 -0.611049
-0.371593 46.068150 10.324172 -0.436819
3.591255 46.068150 10.770262 -0.141855
7.554103 46.068150 10.670521 -0.344431
11.516951 46.068150 10.909820 -0.067038
15.479799 46.068150 10.565316 -0.307790
19.442647 46.068150 10.538787 -0.135692
23.405495 46.068150 10.778769 -0.180767
27.368343 46.068150 11.203929 -0.402108
31.331191 46.068150 10.980651 -0.161522
35.294039 46.068150 10.834531 -0.377159
39.256887 46.068150 10.535552 0.246989
43.219735 46.068150 10.620817 0.318670
47.182583 46.068150 10.597286 -0.749230
51.145431 46.068150 10.933237 -0.288307
55.108279 46.068150 11.022467 -0.173726
59.071127 46.068150 10.645505 -0.130312
63.033975 46.068150 10.477530 -0.249805
66.996822 46.068150 11.183064 -0.279873
-131.145575 42.105302 10.725773 0.712802
-127.182727 42.105302 -0.343713 -0.659563
-123.219879 42.105302 -4.893478 0.651331
-119.257031 42.105302 10.123850 0.864496
-115.294183 42.105302 10.401511 1.923584
-111.331335 42.105302 10.473351 2.005057
-107.368487 42.105302 0.000000 0.000000
-103.405639 42.105302 0.000000 0.000000
-99.442791 42.105302 12.288742 2.343387
-95.479943 42.105302 12.878457 1.598039
-91.517095 42.105302 13.002884 1.394027
-87.554247 42.105302 12.970222 0.822593
-83.591400 42.105302 12.893734 0.630365
-79.628552 42.105302 12.794608 0.436663