TITLE = "B00014"
VARIABLES = "position", "position(2)", "Vx", "Vy"
ZONE T="Frame 0", I=51, J=39
-131.145575 97.585173 11.369538 0.381279
-127.182727 97.585173 11.195450 0.401916
-123.219879 97.585173 11.106032 0.425187
-119.257031 97.585173 11.544284 0.346530
-115.294183 97.585173 11.112443 0.304728
-111.331335 97.585173 0.000000 0.000000
-107.368487 97.585173 0.000000 0.000000
-103.405639 97.585173 0.000000 0.000000
-99.442791 97.585173 0.000000 0.000000
-95.479943 97.585173 0.000000 0.000000
-91.517095 97.585173 0.000000 0.000000
-87.554247 97.585173 11.286501 0.217534
-83.591400 97.585173 11.450082 0.281764
-79.628552 97.585173 11.507908 0.410986
-75.665704 97.585173 11.389889 0.235861
-71.702856 97.585173 11.531360 0.281739
-67.740008 97.585173 11.264298 0.155735
-63.777160 97.585173 11.393887 0.060914
-59.814312 97.585173 11.549389 -0.036550
-55.851464 97.585173 11.289661 -0.014774
-51.888616 97.585173 11.383326 0.067857
-47.925768 97.585173 11.387765 0.073068
-43.962920 97.585173 11.231483 -0.151153
-40.000072 97.585173 11.127122 0.298716
-36.037224 97.585173 11.305698 0.224326
-32.074376 97.585173 11.577755 -0.249588
-28.111528 97.585173 11.190571 -0.204760
-24.148680 97.585173 11.458035 -0.061145
-20.185832 97.585173 11.233155 -0.268985
-16.222984 97.585173 11.393354 -0.080827
-12.260136 97.585173 0.000000 0.000000
-8.297289 97.585173 0.000000 0.000000
-4.334441 97.585173 0.000000 0.000000
-0.371593 97.585173 11.161381 -0.021194
3.591255 97.585173 11.063554 0.066330
7.554103 97.585173 11.030760 0.049488
11.516951 97.585173 11.157088 -0.163663
15.479799 97.585173 11.224698 -0.116917
19.442647 97.585173 11.218533 -0.107751
23.405495 97.585173 11.064508 -0.069355
27.368343 97.585173 10.939487 -0.156174
31.331191 97.585173 11.041686 -0.102749
35.294039 97.585173 11.085547 0.074749
39.256887 97.585173 11.082964 0.050813
43.219735 97.585173 10.968116 0.039499
47.182583 97.585173 10.913218 0.060604
51.145431 97.585173 11.144929 0.029048
55.108279 97.585173 11.051701 -0.019835
59.071127 97.585173 10.891191 -0.147129
63.033975 97.585173 10.902143 -0.018467
66.996822 97.585173 10.938549 0.019578
-131.145575 93.622325 -10.864767 -2.088275
-127.182727 93.622325 10.731264 -0.210767
-123.219879 93.622325 10.875793 0.536995
-119.257031 93.622325 11.505766 0.279924
-115.294183 93.622325 10.954011 0.528827
-111.331335 93.622325 0.000000 0.000000
-107.368487 93.622325 0.000000 0.000000
-103.405639 93.622325 0.000000 0.000000
-99.442791 93.622325 0.000000 0.000000
-95.479943 93.622325 0.000000 0.000000
-91.517095 93.622325 0.000000 0.000000
-87.554247 93.622325 11.338854 0.329686
-83.591400 93.622325 11.421181 0.190170
-79.628552 93.622325 11.426630 0.199893
-75.665704 93.622325 11.215004 0.246458
-71.702856 93.622325 11.500251 0.190591
-67.740008 93.622325 11.431292 0.216053
-63.777160 93.622325 11.452952 0.134519
-59.814312 93.622325 11.563884 0.039564
-55.851464 93.622325 11.475406 0.172186
-51.888616 93.622325 11.235544 0.015630
-47.925768 93.622325 11.529818 0.052988
-43.962920 93.622325 11.427107 0.166264
-40.000072 93.622325 11.389387 0.155423
-36.037224 93.622325 11.656336 -0.079983
-32.074376 93.622325 11.480540 -0.125035
-28.111528 93.622325 11.116721 0.182348
-24.148680 93.622325 11.407987 -0.126460
-20.185832 93.622325 11.183687 0.023336
-16.222984 93.622325 11.338731 -0.130378
-12.260136 93.622325 0.000000 0.000000
-8.297289 93.622325 0.000000 0.000000
-4.334441 93.622325 0.000000 0.000000
-0.371593 93.622325 11.193801 -0.062002
3.591255 93.622325 11.088208 -0.136785
7.554103 93.622325 11.002281 0.090554
11.516951 93.622325 11.099973 0.210648
15.479799 93.622325 10.995316 -0.181760
19.442647 93.622325 11.081609 0.026831
23.405495 93.622325 11.151742 0.057853
27.368343 93.622325 11.055733 0.103973
31.331191 93.622325 11.049736 -0.041127
35.294039 93.622325 11.041199 0.167800
39.256887 93.622325 10.946635 0.241912
43.219735 93.622325 10.902808 0.141670
47.182583 93.622325 11.083016 -0.033743
51.145431 93.622325 10.808990 -0.081489
55.108279 93.622325 11.125726 0.024572
59.071127 93.622325 11.085008 -0.054617
63.033975 93.622325 11.052404 0.201972
66.996822 93.622325 11.048396 0.097244
-131.145575 89.659477 11.410332 0.762631
-127.182727 89.659477 11.436064 0.537650
-123.219879 89.659477 10.907825 0.310637
-119.257031 89.659477 11.281650 0.431772
-115.294183 89.659477 11.314831 0.669479
-111.331335 89.659477 0.000000 0.000000
-107.368487 89.659477 0.000000 0.000000
-103.405639 89.659477 0.000000 0.000000
-99.442791 89.659477 0.000000 0.000000
-95.479943 89.659477 0.000000 0.000000
-91.517095 89.659477 0.000000 0.000000
-87.554247 89.659477 11.268528 0.513646
-83.591400 89.659477 11.309025 0.417105
-79.628552 89.659477 11.463948 0.409656
-75.665704 89.659477 11.576385 0.330333
-71.702856 89.659477 11.435989 0.308955
-67.740008 89.659477 11.549047 0.255834
-63.777160 89.659477 11.444087 -0.023329
-59.814312 89.659477 11.625745 0.041886
-55.851464 89.659477 11.490229 -0.024925
-51.888616 89.659477 11.433461 0.153054
-47.925768 89.659477 11.549408 0.043846
-43.962920 89.659477 11.581645 -0.108950
-40.000072 89.659477 11.346926 -0.044906
-36.037224 89.659477 11.168768 -0.122497
-32.074376 89.659477 11.425808 -0.128016
-28.111528 89.659477 11.286342 -0.040978
-24.148680 89.659477 11.236095 -0.118227
-20.185832 89.659477 11.212468 -0.159305
-16.222984 89.659477 11.234040 -0.364358
-12.260136 89.659477 0.000000 0.000000
-8.297289 89.659477 0.000000 0.000000
-4.334441 89.659477 0.000000 0.000000
-0.371593 89.659477 11.207525 -0.078442
3.591255 89.659477 11.104625 0.092585
7.554103 89.659477 11.020227 -0.177768
11.516951 89.659477 11.162333 -0.141540
15.479799 89.659477 10.972285 0.073503
19.442647 89.659477 10.892897 -0.062202
23.405495 89.659477 10.983064 -0.169841
27.368343 89.659477 10.912998 -0.330039
31.331191 89.659477 11.031900 -0.175280
35.294039 89.659477 10.918152 -0.258575
39.256887 89.659477 11.047822 -0.134244
43.219735 89.659477 10.942022 0.094692
47.182583 89.659477 10.992681 0.105182
51.145431 89.659477 10.968308 0.014205
55.108279 89.659477 10.918111 0.068121
59.071127 89.659477 10.945491 -0.125708
63.033975 89.659477 10.804431 -0.025299
66.996822 89.659477 10.817683 0.107978
-131.145575 85.696629 11.336258 0.703811
-127.182727 85.696629 11.243719 0.400524
-123.219879 85.696629 11.240460 0.507499
-119.257031 85.696629 11.168103 0.490984
-115.294183 85.696629 11.144326 0.528489
-111.331335 85.696629 0.000000 0.000000
-107.368487 85.696629 0.000000 0.000000
-103.405639 85.696629 0.000000 0.000000
-99.442791 85.696629 0.000000 0.000000
-95.479943 85.696629 0.000000 0.000000
-91.517095 85.696629 0.000000 0.000000
-87.554247 85.696629 11.378279 0.366610
-83.591400 85.696629 11.639883 0.450504
-79.628552 85.696629 11.594667 0.391047
-75.665704 85.696629 11.539634 0.272448
-71.702856 85.696629 11.650535 0.283025
-67.740008 85.696629 11.498785 0.224396
-63.777160 85.696629 11.268168 0.157010
-59.814312 85.696629 11.486286 -0.003438
-55.851464 85.696629 11.484907 -0.076436
-51.888616 85.696629 11.538101 0.144747
-47.925768 85.696629 11.520608 0.026898
-43.962920 85.696629 11.451581 -0.145030
-40.000072 85.696629 11.304865 -0.071812
-36.037224 85.696629 11.278685 -0.089027
-32.074376 85.696629 11.372399 -0.015376
-28.111528 85.696629 11.245294 -0.266209
-24.148680 85.696629 11.330353 -0.123607
-20.185832 85.696629 11.076904 -0.138856
-16.222984 85.696629 11.236115 -0.225849
-12.260136 85.696629 0.000000 0.000000
-8.297289 85.696629 0.000000 0.000000
-4.334441 85.696629 0.000000 0.000000
-0.371593 85.696629 11.173986 -0.205363
3.591255 85.696629 10.927867 -0.065138
7.554103 85.696629 11.243216 -0.157280
11.516951 85.696629 11.114870 0.007965
15.479799 85.696629 11.104661 0.000889
19.442647 85.696629 11.123998 -0.127386
23.405495 85.696629 11.116724 -0.116166
27.368343 85.696629 11.052155 -0.052893
31.331191 85.696629 10.971640 -0.075744
35.294039 85.696629 11.024925 0.222780
39.256887 85.696629 11.084653 0.098878
43.219735 85.696629 11.203591 -0.212476
47.182583 85.696629 11.013486 0.118185
51.145431 85.696629 10.913222 -0.106161
55.108279 85.696629 10.935884 -0.143847
59.071127 85.696629 10.938328 -0.128625
63.033975 85.696629 10.954630 -0.047312
66.996822 85.696629 10.866138 -0.036674
-131.145575 81.733781 17.814623 8.551935
-127.182727 81.733781 10.948033 0.306155
-123.219879 81.733781 11.053746 0.542590
-119.257031 81.733781 11.277902 0.862403
-115.294183 81.733781 11.051707 0.519933
-111.331335 81.733781 0.000000 0.000000
-107.368487 81.733781 0.000000 0.000000
-103.405639 81.733781 0.000000 0.000000
-99.442791 81.733781 0.000000 0.000000
-95.479943 81.733781 0.000000 0.000000
-91.517095 81.733781 0.000000 0.000000
-87.554247 81.733781 11.431041 0.394882
-83.591400 81.733781 11.530025 0.468911
-79.628552 81.733781 11.617430 0.456485
-75.665704 81.733781 11.457833 0.193269
-71.702856 81.733781 11.619565 0.184644
-67.740008 81.733781 11.548439 0.126204
-63.777160 81.733781 11.647000 -0.028044
-59.814312 81.733781 11.592878 0.065672
-55.851464 81.733781 11.578581 0.082568
-51.888616 81.733781 11.682289 0.056447
-47.925768 81.733781 11.450241 -0.165941
-43.962920 81.733781 11.465912 -0.118706
-40.000072 81.733781 11.373496 -0.149254
-36.037224 81.733781 11.488614 0.012854
-32.074376 81.733781 11.405605 -0.223518
-28.111528 81.733781 11.448281 -0.137305
-24.148680 81.733781 11.384473 -0.099287
-20.185832 81.733781 11.298967 -0.147219
-16.222984 81.733781 11.310929 -0.171926
-12.260136 81.733781 0.000000 0.000000
-8.297289 81.733781 0.000000 0.000000
-4.334441 81.733781 0.000000 0.000000
-0.371593 81.733781 11.213394 -0.316560
3.591255 81.733781 11.047868 -0.208952
7.554103 81.733781 11.100643 -0.112957
11.516951 81.733781 11.064477 -0.170627
15.479799 81.733781 11.113301 -0.177279
19.442647 81.733781 11.090370 0.138509
23.405495 81.733781 11.012553 0.029140
27.368343 81.733781 11.086010 -0.175298
31.331191 81.733781 10.955404 -0.220595
35.294039 81.733781 10.900509 0.137887
39.256887 81.733781 10.971681 0.039110
43.219735 81.733781 11.018991 0.115126
47.182583 81.733781 11.021698 -0.153355
51.145431 81.733781 11.022165 0.080186
55.108279 81.733781 10.971083 -0.172638
59.071127 81.733781 10.960538 0.052859
63.033975 81.733781 11.086572 0.133898
66.996822 81.733781 10.883805 0.016414
-131.145575 77.770933 0.710415 3.029116
-127.182727 77.770933 11.272244 0.653268
-123.219879 77.770933 11.292693 0.690241
-119.257031 77.770933 11.587500 0.674372
-115.294183 77.770933 11.111428 0.366681
-111.331335 77.770933 0.000000 0.000000
-107.368487 77.770933 0.000000 0.000000
-103.405639 77.770933 0.000000 0.000000
-99.442791 77.770933 0.000000 0.000000
-95.479943 77.770933 0.000000 0.000000
-91.517095 77.770933 11.437086 0.332540
-87.554247 77.770933 11.712969 0.491101
-83.591400 77.770933 11.608974 0.283178
-79.628552 77.770933 11.635446 0.276876
-75.665704 77.770933 11.672465 0.310910
-71.702856 77.770933 11.710870 0.304774
-67.740008 77.770933 11.751697 0.166378
-63.777160 77.770933 11.672202 0.255073
-59.814312 77.770933 11.568673 -0.100239
-55.851464 77.770933 11.649361 0.026421
-51.888616 77.770933 11.668121 0.104937
-47.925768 77.770933 11.564590 -0.039358
-43.962920 77.770933 11.350508 -0.102667
-40.000072 77.770933 11.464454 -0.109091
-36.037224 77.770933 11.485252 -0.077578
-32.074376 77.770933 11.352597 -0.259800
-28.111528 77.770933 11.300102 -0.265132
-24.148680 77.770933 11.316101 -0.250470
-20.185832 77.770933 11.328077 -0.221635
-16.222984 77.770933 11.200805 -0.235989
-12.260136 77.770933 0.000000 0.000000
-8.297289 77.770933 0.000000 0.000000
-4.334441 77.770933 0.000000 0.000000
-0.371593 77.770933 11.030401 -0.368258
3.591255 77.770933 11.027723 -0.205392
7.554103 77.770933 11.017856 -0.102403
11.516951 77.770933 11.031425 -0.216807
15.479799 77.770933 11.042216 -0.113260
19.442647 77.770933 11.105555 -0.077239
23.405495 77.770933 11.055078 -0.170794
27.368343 77.770933 11.035913 -0.133544
31.331191 77.770933 10.933392 -0.320445
35.294039 77.770933 10.897705 0.036262
39.256887 77.770933 10.947899 0.001997
43.219735 77.770933 10.920092 -0.070057
47.182583 77.770933 10.952560 -0.004490
51.145431 77.770933 11.085641 0.194323
55.108279 77.770933 10.731953 0.033265
59.071127 77.770933 10.918190 0.016128
63.033975 77.770933 10.945753 -0.149692
66.996822 77.770933 10.924693 -0.278042
-131.145575 73.808085 -5.250226 15.051905
-127.182727 73.808085 11.166652 0.741205
-123.219879 73.808085 10.630979 0.299170
-119.257031 73.808085 11.059329 0.688585
-115.294183 73.808085 11.275966 0.820957
-111.331335 73.808085 0.000000 0.000000
-107.368487 73.808085 0.000000 0.000000
-103.405639 73.808085 0.000000 0.000000
-99.442791 73.808085 0.000000 0.000000
-95.479943 73.808085 0.000000 0.000000
-91.517095 73.808085 11.797352 0.568580
-87.554247 73.808085 11.676188 0.486844
-83.591400 73.808085 11.555373 0.299328
-79.628552 73.808085 11.761979 0.314920
-75.665704 73.808085 11.722087 0.378302
-71.702856 73.808085 11.588781 0.268538
-67.740008 73.808085 11.615072 -0.053770
-63.777160 73.808085 11.576578 0.057473
-59.814312 73.808085 11.735729 0.225045
-55.851464 73.808085 11.721593 0.024709
-51.888616 73.808085 11.608938 -0.018051
-47.925768 73.808085 11.480725 -0.191703
-43.962920 73.808085 11.585183 -0.190493
-40.000072 73.808085 11.553308 -0.163049
-36.037224 73.808085 11.458894 -0.173781
-32.074376 73.808085 11.500010 -0.245869
-28.111528 73.808085 11.430735 -0.268145
-24.148680 73.808085 11.256161 -0.152504
-20.185832 73.808085 11.246694 -0.337669
-16.222984 73.808085 11.205455 -0.365049
-12.260136 73.808085 0.000000 0.000000
-8.297289 73.808085 0.000000 0.000000
-4.334441 73.808085 0.000000 0.000000
-0.371593 73.808085 11.112574 -0.282364
3.591255 73.808085 11.048820 -0.371112
7.554103 73.808085 11.022932 -0.192253
11.516951 73.808085 11.065675 -0.190896
15.479799 73.808085 10.988629 -0.160353
19.442647 73.808085 10.924343 -0.176078
23.405495 73.808085 11.042830 -0.149479
27.368343 73.808085 10.977783 -0.134400
31.331191 73.808085 10.772127 0.019629
35.294039 73.808085 10.944975 -0.059005
39.256887 73.808085 11.008788 -0.128720
43.219735 73.808085 10.966072 -0.143344
47.182583 73.808085 10.918446 0.091796
51.145431 73.808085 10.942480 -0.195731
55.108279 73.808085 10.945515 -0.041788
59.071127 73.808085 10.818563 -0.175499
63.033975 73.808085 11.008400 -0.174987
66.996822 73.808085 10.939082 -0.080665
-131.145575 69.845237 10.970121 0.593923
-127.182727 69.845237 10.336418 0.550002
-123.219879 69.845237 11.446958 0.763324
-119.257031 69.845237 11.158652 0.758170
-115.294183 69.845237 11.154092 0.854654
-111.331335 69.845237 0.000000 0.000000
-107.368487 69.845237 0.000000 0.000000
-103.405639 69.845237 0.000000 0.000000
-99.442791 69.845237 0.000000 0.000000
-95.479943 69.845237 0.000000 0.000000
-91.517095 69.845237 11.685740 0.746897
-87.554247 69.845237 11.628909 0.600476
-83.591400 69.845237 11.701255 0.516993
-79.628552 69.845237 11.879712 0.427179
-75.665704 69.845237 11.685196 0.359222
-71.702856 69.845237 11.679624 0.132914
-67.740008 69.845237 11.769060 -0.014736
-63.777160 69.845237 11.811293 0.172233
-59.814312 69.845237 11.720906 -0.054618
-55.851464 69.845237 11.830008 -0.014090
-51.888616 69.845237 11.771484 -0.310234
-47.925768 69.845237 11.595419 -0.184557
-43.962920 69.845237 11.666526 -0.159471
-40.000072 69.845237 11.580340 -0.219679
-36.037224 69.845237 11.470171 -0.208732
-32.074376 69.845237 11.364349 -0.242211
-28.111528 69.845237 11.449848 -0.271892
-24.148680 69.845237 11.227166 -0.352486
-20.185832 69.845237 11.347319 -0.359687
-16.222984 69.845237 11.369064 -0.300999
-12.260136 69.845237 0.000000 0.000000
-8.297289 69.845237 0.000000 0.000000
-4.334441 69.845237 0.000000 0.000000
-0.371593 69.845237 11.021256 -0.397444
3.591255 69.845237 10.970945 -0.151224
7.554103 69.845237 11.040831 -0.304206
11.516951 69.845237 11.086177 -0.150503
15.479799 69.845237 10.816297 -0.130463
19.442647 69.845237 10.880327 -0.142754
23.405495 69.845237 10.859698 -0.012890
27.368343 69.845237 10.952982 -0.038188
31.331191 69.845237 10.965676 -0.234349
35.294039 69.845237 10.998234 -0.206795
39.256887 69.845237 10.766885 -0.136019
43.219735 69.845237 10.943768 -0.310568
47.182583 69.845237 11.133649 -0.040635
51.145431 69.845237 10.773207 -0.176038
55.108279 69.845237 10.930150 0.136191
59.071127 69.845237 10.935845 0.013818
63.033975 69.845237 10.893263 0.243126
66.996822 69.845237 11.074572 -0.093717
-131.145575 65.882389 16.236143 -16.542910
-127.182727 65.882389 10.654047 0.827192
-123.219879 65.882389 10.822482 0.926443
-119.257031 65.882389 11.391224 0.852941
-115.294183 65.882389 11.070461 1.174312
-111.331335 65.882389 0.000000 0.000000
-107.368487 65.882389 0.000000 0.000000
-103.405639 65.882389 0.000000 0.000000
-99.442791 65.882389 0.000000 0.000000
-95.479943 65.882389 0.000000 0.000000
-91.517095 65.882389 11.819545 0.604119
-87.554247 65.882389 11.685820 0.528472
-83.591400 65.882389 11.972444 0.441090
-79.628552 65.882389 12.015573 0.331233
-75.665704 65.882389 11.938796 0.181822
-71.702856 65.882389 11.818508 0.048695
-67.740008 65.882389 11.923036 0.157972
-63.777160 65.882389 11.906341 -0.123666
-59.814312 65.882389 11.657736 -0.244616
-55.851464 65.882389 11.802367 -0.354809
-51.888616 65.882389 11.702866 -0.206015
-47.925768 65.882389 11.744534 -0.270490
-43.962920 65.882389 11.622541 -0.177620
-40.000072 65.882389 11.408681 -0.246547
-36.037224 65.882389 11.673308 -0.292026
-32.074376 65.882389 11.448156 -0.242467
-28.111528 65.882389 11.329854 -0.279114
-24.148680 65.882389 11.324045 -0.366664
-20.185832 65.882389 11.128527 -0.371934
-16.222984 65.882389 11.278381 -0.357294
-12.260136 65.882389 0.000000 0.000000
-8.297289 65.882389 0.000000 0.000000
-4.334441 65.882389 11.239455 -0.286731
-0.371593 65.882389 10.916161 -0.419379
3.591255 65.882389 11.024614 -0.250426
7.554103 65.882389 10.978036 -0.172156
11.516951 65.882389 10.926172 -0.339913
15.479799 65.882389 10.935110 -0.202001
19.442647 65.882389 10.908829 -0.057937
23.405495 65.882389 10.893247 -0.284757
27.368343 65.882389 10.832376 -0.222906
31.331191 65.882389 10.973599 -0.178952
35.294039 65.882389 10.913068 -0.107612
39.256887 65.882389 10.858829 -0.125119
43.219735 65.882389 10.890738 0.026468
47.182583 65.882389 10.978304 -0.181117
51.145431 65.882389 10.919906 -0.302811
55.108279 65.882389 10.842939 -0.304083
59.071127 65.882389 10.772058 -0.111169
63.033975 65.882389 10.851216 0.124383
66.996822 65.882389 11.234558 0.031297
-131.145575 61.919541 1.550136 9.017798
-127.182727 61.919541 -5.270442 -8.207137
-123.219879 61.919541 11.316627 0.718678
-119.257031 61.919541 11.165488 0.874570
-115.294183 61.919541 11.152993 0.802897
-111.331335 61.919541 0.000000 0.000000
-107.368487 61.919541 0.000000 0.000000
-103.405639 61.919541 0.000000 0.000000
-99.442791 61.919541 0.000000 0.000000
-95.479943 61.919541 0.000000 0.000000
-91.517095 61.919541 11.866384 0.767218
-87.554247 61.919541 11.848166 0.416113
-83.591400 61.919541 11.937649 0.540807
-79.628552 61.919541 11.918552 0.385751
-75.665704 61.919541 11.811233 0.062042
-71.702856 61.919541 11.923761 0.139959
-67.740008 61.919541 11.924487 0.186853
-63.777160 61.919541 11.950727 -0.086735
-59.814312 61.919541 11.877047 0.047826
-55.851464 61.919541 11.885036 -0.021198
-51.888616 61.919541 11.761118 -0.374856
-47.925768 61.919541 11.739127 -0.168170
-43.962920 61.919541 11.638049 -0.258763
-40.000072 61.919541 11.745201 -0.273062
-36.037224 61.919541 11.519456 -0.281557
-32.074376 61.919541 11.498346 -0.293768
-28.111528 61.919541 11.290135 -0.376582
-24.148680 61.919541 11.457059 -0.430364
-20.185832 61.919541 11.333359 -0.390375
-16.222984 61.919541 11.225208 -0.407510
-12.260136 61.919541 0.000000 0.000000
-8.297289 61.919541 0.000000 0.000000
-4.334441 61.919541 11.039570 -0.249578
-0.371593 61.919541 11.129284 -0.496535
3.591255 61.919541 10.943329 -0.236073
7.554103 61.919541 11.022688 -0.320044
11.516951 61.919541 10.820050 -0.191508
15.479799 61.919541 10.885037 -0.292647
19.442647 61.919541 10.915924 -0.305186
23.405495 61.919541 11.182159 -0.166836
27.368343 61.919541 10.904784 -0.229418
31.331191 61.919541 10.876104 -0.366642
35.294039 61.919541 10.857936 0.010474
39.256887 61.919541 10.992731 -0.073956
43.219735 61.919541 10.965421 -0.394295
47.182583 61.919541 11.065222 -0.098742
51.145431 61.919541 10.851674 -0.362440
55.108279 61.919541 11.255337 -0.086068
59.071127 61.919541 10.839824 -0.085116
63.033975 61.919541 10.837768 -0.156247
66.996822 61.919541 10.882707 -0.026391
-131.145575 57.956694 11.655241 1.178710
-127.182727 57.956694 10.432934 -0.080330
-123.219879 57.956694 10.763180 0.964432
-119.257031 57.956694 10.903823 1.005961
-115.294183 57.956694 11.198565 1.000397
-111.331335 57.956694 0.000000 0.000000
-107.368487 57.956694 0.000000 0.000000
-103.405639 57.956694 0.000000 0.000000
-99.442791 57.956694 0.000000 0.000000
-95.479943 57.956694 11.754271 1.039545
-91.517095 57.956694 11.877916 0.770281
-87.554247 57.956694 11.770422 0.633567
-83.591400 57.956694 11.989429 0.597244
-79.628552 57.956694 12.186154 0.502953
-75.665704 57.956694 12.279976 0.148969
-71.702856 57.956694 11.965338 -0.033529
-67.740008 57.956694 11.957772 0.133403
-63.777160 57.956694 12.049058 -0.111254
-59.814312 57.956694 11.909483 -0.105255
-55.851464 57.956694 11.911363 -0.045939
-51.888616 57.956694 11.901790 -0.242277
-47.925768 57.956694 11.773973 -0.246803
-43.962920 57.956694 11.699776 -0.423511
-40.000072 57.956694 11.639503 -0.337541
-36.037224 57.956694 11.599237 -0.472512
-32.074376 57.956694 11.535860 -0.488567
-28.111528 57.956694 11.535417 -0.583622
-24.148680 57.956694 11.312609 -0.496020
-20.185832 57.956694 11.046540 -0.513224
-16.222984 57.956694 11.360712 -0.572889
-12.260136 57.956694 0.000000 0.000000
-8.297289 57.956694 0.000000 0.000000
-4.334441 57.956694 11.101472 -0.462144
-0.371593 57.956694 11.007798 -0.400786
3.591255 57.956694 10.822161 -0.447297
7.554103 57.956694 10.935855 -0.218815
11.516951 57.956694 10.972825 -0.258439
15.479799 57.956694 10.954216 -0.327566
19.442647 57.956694 10.834275 -0.224284
23.405495 57.956694 10.898693 0.068861
27.368343 57.956694 10.878118 -0.257746
31.331191 57.956694 10.841465 -0.149705
35.294039 57.956694 10.842731 -0.184798
39.256887 57.956694 11.031260 0.135965
43.219735 57.956694 11.003987 -0.116823
47.182583 57.956694 10.733098 -0.045887
51.145431 57.956694 10.810686 0.134660
55.108279 57.956694 10.969692 -0.073092
59.071127 57.956694 10.869773 -0.224631
63.033975 57.956694 10.943895 0.149293
66.996822 57.956694 10.899523 -0.380894
-131.145575 53.993846 -3.023934 -12.216131
-127.182727 53.993846 10.774610 1.377391
-123.219879 53.993846 10.804478 0.972059
-119.257031 53.993846 10.990345 0.769701
-115.294183 53.993846 10.967573 1.276110
-111.331335 53.993846 0.000000 0.000000
-107.368487 53.993846 0.000000 0.000000
-103.405639 53.993846 0.000000 0.000000
-99.442791 53.993846 0.000000 0.000000
-95.479943 53.993846 11.869172 1.304176
-91.517095 53.993846 12.261448 0.781497
-87.554247 53.993846 12.037000 0.637834
-83.591400 53.993846 12.260053 0.393211
-79.628552 53.993846 12.218020 0.458143
-75.665704 53.993846 12.122832 0.143743
-71.702856 53.993846 12.251419 0.157263
-67.740008 53.993846 12.085395 -0.140135
-63.777160 53.993846 12.076599 0.075677
-59.814312 53.993846 11.944142 -0.355072
-55.851464 53.993846 11.989288 -0.309494
-51.888616 53.993846 11.795387 -0.246195
-47.925768 53.993846 11.733234 -0.306033
-43.962920 53.993846 11.831743 -0.230721
-40.000072 53.993846 11.648763 -0.454383
-36.037224 53.993846 11.579659 -0.574964
-32.074376 53.993846 11.471634 -0.587265
-28.111528 53.993846 11.395485 -0.530644
-24.148680 53.993846 11.416440 -0.576415
-20.185832 53.993846 11.290167 -0.537596
-16.222984 53.993846 11.282517 -0.570419
-12.260136 53.993846 11.149329 -0.662240
-8.297289 53.993846 0.000000 0.000000
-4.334441 53.993846 10.814043 -0.610011
-0.371593 53.993846 11.051775 -0.438290
3.591255 53.993846 10.887206 -0.204073
7.554103 53.993846 11.019135 -0.254360
11.516951 53.993846 10.891535 -0.343886
15.479799 53.993846 10.670297 -0.129273
19.442647 53.993846 10.745663 -0.267466
23.405495 53.993846 10.900395 -0.327802
27.368343 53.993846 10.763563 -0.095741
31.331191 53.993846 10.833569 -0.132322
35.294039 53.993846 10.815425 -0.047091
39.256887 53.993846 10.830609 0.223341
43.219735 53.993846 10.894547 -0.286136
47.182583 53.993846 10.854912 -0.106654
51.145431 53.993846 10.827430 -0.341960
55.108279 53.993846 10.792183 -0.279819
59.071127 53.993846 10.741792 -0.094495
63.033975 53.993846 10.932617 -0.399402
66.996822 53.993846 10.780418 -0.412585
-131.145575 50.030998 5.251238 -10.625710
-127.182727 50.030998 10.517994 0.944162
-123.219879 50.030998 10.782019 1.146736
-119.257031 50.030998 10.945158 0.934415
-115.294183 50.030998 10.884878 1.530434
-111.331335 50.030998 0.000000 0.000000
-107.368487 50.030998 0.000000 0.000000
-103.405639 50.030998 0.000000 0.000000
-99.442791 50.030998 0.000000 0.000000
-95.479943 50.030998 12.096188 1.059678
-91.517095 50.030998 12.038805 1.135689
-87.554247 50.030998 12.288944 0.729959
-83.591400 50.030998 12.139069 0.640689
-79.628552 50.030998 12.421821 0.418610
-75.665704 50.030998 12.319897 0.196748
-71.702856 50.030998 12.298021 0.190769
-67.740008 50.030998 12.332350 -0.040715
-63.777160 50.030998 12.224005 -0.134864
-59.814312 50.030998 12.128550 0.057612
-55.851464 50.030998 12.012964 -0.258716
-51.888616 50.030998 11.932016 -0.483921
-47.925768 50.030998 11.842105 -0.468348
-43.962920 50.030998 11.773992 -0.591516
-40.000072 50.030998 11.645318 -0.685983
-36.037224 50.030998 11.518470 -0.546687
-32.074376 50.030998 11.743104 -0.697850
-28.111528 50.030998 11.448245 -0.616020
-24.148680 50.030998 11.121038 -0.587450
-20.185832 50.030998 11.304785 -0.619518
-16.222984 50.030998 11.374788 -0.572514
-12.260136 50.030998 10.886772 -0.817077
-8.297289 50.030998 0.000000 0.000000
-4.334441 50.030998 10.909735 -0.511634
-0.371593 50.030998 10.987525 -0.450785
3.591255 50.030998 10.825965 -0.423603
7.554103 50.030998 10.733469 -0.454107
11.516951 50.030998 10.607923 -0.098212
15.479799 50.030998 10.771604 -0.184218
19.442647 50.030998 10.844085 -0.560348
23.405495 50.030998 10.895122 -0.283948
27.368343 50.030998 10.741713 -0.306475
31.331191 50.030998 10.848554 0.104878
35.294039 50.030998 10.889393 0.178702
39.256887 50.030998 10.780341 -0.321992
43.219735 50.030998 10.973495 -0.144282
47.182583 50.030998 10.811243 -0.097947
51.145431 50.030998 10.746470 -0.073481
55.108279 50.030998 10.844612 -0.292453
59.071127 50.030998 10.916746 -0.149892
63.033975 50.030998 10.777965 0.150492
66.996822 50.030998 10.837146 -0.130205
-131.145575 46.068150 -5.566346 7.420460
-127.182727 46.068150 10.992254 -16.407778
-123.219879 46.068150 10.731938 0.946898
-119.257031 46.068150 10.563566 0.880006
-115.294183 46.068150 10.336442 1.099402
-111.331335 46.068150 10.885697 1.679102
-107.368487 46.068150 0.000000 0.000000
-103.405639 46.068150 0.000000 0.000000
-99.442791 46.068150 0.000000 0.000000
-95.479943 46.068150 12.178302 1.090706
-91.517095 46.068150 12.716861 1.000541
-87.554247 46.068150 12.537011 0.807069
-83.591400 46.068150 12.521243 0.515916
-79.628552 46.068150 12.464320 0.323071
-75.665704 46.068150 12.511582 0.204999
-71.702856 46.068150 12.463698 -0.000014
-67.740008 46.068150 12.298053 -0.094113
-63.777160 46.068150 12.381138 -0.249057
-59.814312 46.068150 12.177164 -0.206636
-55.851464 46.068150 11.994411 -0.277211
-51.888616 46.068150 12.059330 -0.378621
-47.925768 46.068150 12.136494 -0.364254
-43.962920 46.068150 11.744432 -0.459480
-40.000072 46.068150 11.609533 -0.601650
-36.037224 46.068150 11.859300 -0.557930
-32.074376 46.068150 11.736341 -0.616056
-28.111528 46.068150 11.586408 -0.691867
-24.148680 46.068150 11.473958 -0.820776
-20.185832 46.068150 11.631787 -0.798062
-16.222984 46.068150 11.426679 -0.820154
-12.260136 46.068150 11.052064 -0.740802
-8.297289 46.068150 0.000000 0.000000
-4.334441 46.068150 10.951244 -0.498605
-0.371593 46.068150 10.958070 -0.755460
3.591255 46.068150 10.668930 -0.534514
7.554103 46.068150 10.475453 -0.326577
11.516951 46.068150 10.597021 0.172239
15.479799 46.068150 10.802674 0.084744
19.442647 46.068150 10.950769 -0.319928
23.405495 46.068150 10.923000 -0.483440
27.368343 46.068150 10.764448 -0.338816
31.331191 46.068150 10.586925 -0.098833
35.294039 46.068150 10.779162 -0.079411
39.256887 46.068150 11.414056 -0.290135
43.219735 46.068150 10.838020 -0.381233
47.182583 46.068150 10.768673 0.225292
51.145431 46.068150 10.894476 -0.155587
55.108279 46.068150 10.740791 0.186491
59.071127 46.068150 10.796562 -0.391318
63.033975 46.068150 10.773993 -0.087172
66.996822 46.068150 10.830409 -0.095012
-131.145575 42.105302 -5.421196 -2.203119
-127.182727 42.105302 10.613285 0.395994
-123.219879 42.105302 10.450933 0.951891
-119.257031 42.105302 9.855814 0.704519
-115.294183 42.105302 9.876212 1.459435
-111.331335 42.105302 10.386079 2.045637
-107.368487 42.105302 0.000000 0.000000
-103.405639 42.105302 0.000000 0.000000
-99.442791 42.105302 12.561039 2.146950
-95.479943 42.105302 12.737575 1.740707
-91.517095 42.105302 12.741755 0.974412
-87.554247 42.105302 12.944151 0.830675
-83.591400 42.105302 12.873379 0.642793