TITLE = "B00002"
VARIABLES = "position", "position(2)", "Vx", "Vy"
ZONE T="Frame 0", I=102, J=78
-132.136287 98.575885 3.057872 4.260827
-130.154863 98.575885 1.799204 0.525286
-128.173439 98.575885 0.384918 0.314428
-126.192015 98.575885 0.290291 0.202392
-124.210591 98.575885 0.195300 0.176990
-122.229167 98.575885 0.168382 0.170541
-120.247743 98.575885 0.148768 0.165230
-118.266319 98.575885 0.149599 0.136909
-116.284895 98.575885 0.148036 0.146934
-114.303471 98.575885 0.000000 0.000000
-112.322047 98.575885 0.000000 0.000000
-110.340623 98.575885 0.000000 0.000000
-108.359199 98.575885 0.000000 0.000000
-106.377775 98.575885 0.000000 0.000000
-104.396351 98.575885 0.000000 0.000000
-102.414927 98.575885 0.000000 0.000000
-100.433503 98.575885 0.000000 0.000000
-98.452079 98.575885 0.000000 0.000000
-96.470655 98.575885 0.000000 0.000000
-94.489231 98.575885 0.000000 0.000000
-92.507807 98.575885 0.000000 0.000000
-90.526383 98.575885 0.000000 0.000000
-88.544959 98.575885 0.000000 0.000000
-86.563536 98.575885 0.114139 0.097283
-84.582112 98.575885 0.102626 0.098087
-82.600688 98.575885 0.105415 0.097663
-80.619264 98.575885 0.111108 0.128920
-78.637840 98.575885 0.116406 0.109768
-76.656416 98.575885 0.121373 0.126245
-74.674992 98.575885 0.128103 0.116243
-72.693568 98.575885 0.135303 0.120448
-70.712144 98.575885 0.126035 0.110593
-68.730720 98.575885 0.134350 0.120781
-66.749296 98.575885 0.117564 0.104554
-64.767872 98.575885 0.109507 0.118278
-62.786448 98.575885 0.116885 0.108162
-60.805024 98.575885 0.119603 0.107917
-58.823600 98.575885 0.139473 0.133832
-56.842176 98.575885 0.132407 0.141216
-54.860752 98.575885 0.129916 0.143400
-52.879328 98.575885 0.138405 0.131365
-50.897904 98.575885 0.124442 0.105729
-48.916480 98.575885 0.110666 0.123853
-46.935056 98.575885 0.112565 0.112312
-44.953632 98.575885 0.105438 0.091995
-42.972208 98.575885 0.118054 0.124311
-40.990784 98.575885 0.123946 0.130230
-39.009360 98.575885 0.150492 0.156999
-37.027936 98.575885 0.136509 0.147490
-35.046512 98.575885 0.125306 0.129458
-33.065088 98.575885 0.140361 0.131920
-31.083664 98.575885 0.126353 0.132600
-29.102240 98.575885 0.141376 0.143060
-27.120816 98.575885 0.143572 0.164057
-25.139392 98.575885 0.164021 0.169542
-23.157968 98.575885 0.177329 0.163026
-21.176544 98.575885 0.159954 0.144101
-19.195120 98.575885 0.150050 0.143657
-17.213696 98.575885 0.182101 0.241918
-15.232272 98.575885 0.000000 0.000000
-13.250848 98.575885 0.000000 0.000000
-11.269424 98.575885 0.000000 0.000000
-9.288001 98.575885 0.000000 0.000000
-7.306577 98.575885 0.000000 0.000000
-5.325153 98.575885 0.120180 0.154064
-3.343729 98.575885 0.112673 0.127767
-1.362305 98.575885 0.112927 0.127816
0.619119 98.575885 0.105962 0.138242
2.600543 98.575885 0.120909 0.127065
4.581967 98.575885 0.113319 0.123589
6.563391 98.575885 0.098609 0.126407
8.544815 98.575885 0.104437 0.130504
10.526239 98.575885 0.095115 0.132945
12.507663 98.575885 0.104412 0.132650
14.489087 98.575885 0.106629 0.129706
16.470511 98.575885 0.108537 0.144938
18.451935 98.575885 0.102823 0.148761
20.433359 98.575885 0.112622 0.151120
22.414783 98.575885 0.107534 0.138409
24.396207 98.575885 0.110152 0.133281
26.377631 98.575885 0.113921 0.130132
28.359055 98.575885 0.113087 0.140881
30.340479 98.575885 0.110419 0.133419
32.321903 98.575885 0.095317 0.135511
34.303327 98.575885 0.111736 0.150404
36.284751 98.575885 0.133730 0.148701
38.266175 98.575885 0.119647 0.165364
40.247599 98.575885 0.103455 0.167211
42.229023 98.575885 0.109765 0.174196
44.210447 98.575885 0.115050 0.187550
46.191871 98.575885 0.109008 0.173153
48.173295 98.575885 0.120779 0.176130
50.154719 98.575885 0.129164 0.171713
52.136143 98.575885 0.129509 0.173288
54.117567 98.575885 0.126530 0.173096
56.098991 98.575885 0.121872 0.190627
58.080415 98.575885 0.129945 0.203564
60.061839 98.575885 0.132519 0.195399
62.043263 98.575885 0.134941 0.211226
64.024687 98.575885 0.135468 0.230055
66.006110 98.575885 0.139659 0.237123
67.987534 98.575885 0.000000 0.000000
-132.136287 96.594461 2.384950 5.126955
-130.154863 96.594461 0.545772 0.387532
-128.173439 96.594461 1.492858 1.239099
-126.192015 96.594461 0.224698 0.156188
-124.210591 96.594461 0.170562 0.158562
-122.229167 96.594461 0.139343 0.151346
-120.247743 96.594461 0.124085 0.125022
-118.266319 96.594461 0.127472 0.104539
-116.284895 96.594461 0.117421 0.116985
-114.303471 96.594461 0.159655 0.194844
-112.322047 96.594461 0.000000 0.000000
-110.340623 96.594461 0.000000 0.000000
-108.359199 96.594461 0.000000 0.000000
-106.377775 96.594461 0.000000 0.000000
-104.396351 96.594461 0.000000 0.000000
-102.414927 96.594461 0.000000 0.000000
-100.433503 96.594461 0.000000 0.000000
-98.452079 96.594461 0.000000 0.000000
-96.470655 96.594461 0.000000 0.000000
-94.489231 96.594461 0.000000 0.000000
-92.507807 96.594461 0.000000 0.000000
-90.526383 96.594461 0.000000 0.000000
-88.544959 96.594461 0.000000 0.000000
-86.563536 96.594461 0.097538 0.074646
-84.582112 96.594461 0.099218 0.089966
-82.600688 96.594461 0.094529 0.085162
-80.619264 96.594461 0.097318 0.102162
-78.637840 96.594461 0.103509 0.090125
-76.656416 96.594461 0.083857 0.089196
-74.674992 96.594461 0.110997 0.088851
-72.693568 96.594461 0.107961 0.087727
-70.712144 96.594461 0.085452 0.087051
-68.730720 96.594461 0.098905 0.103553
-66.749296 96.594461 0.101307 0.087264
-64.767872 96.594461 0.100806 0.106504
-62.786448 96.594461 0.098254 0.092054
-60.805024 96.594461 0.107882 0.116004
-58.823600 96.594461 0.120083 0.130054
-56.842176 96.594461 0.116990 0.106448
-54.860752 96.594461 0.106365 0.112582
-52.879328 96.594461 0.090102 0.101231
-50.897904 96.594461 0.090922 0.093768
-48.916480 96.594461 0.081783 0.095220
-46.935056 96.594461 0.093672 0.088279
-44.953632 96.594461 0.086975 0.084204
-42.972208 96.594461 0.094692 0.102895
-40.990784 96.594461 0.108589 0.116767
-39.009360 96.594461 0.117150 0.126085
-37.027936 96.594461 0.127044 0.120953
-35.046512 96.594461 0.120174 0.119930
-33.065088 96.594461 0.105861 0.106664
-31.083664 96.594461 0.101947 0.116006
-29.102240 96.594461 0.122344 0.134380
-27.120816 96.594461 0.116327 0.126258
-25.139392 96.594461 0.120569 0.128402
-23.157968 96.594461 0.134631 0.131872
-21.176544 96.594461 0.155228 0.127261
-19.195120 96.594461 0.138784 0.134259
-17.213696 96.594461 0.163973 0.187213
-15.232272 96.594461 0.000000 0.000000
-13.250848 96.594461 0.000000 0.000000
-11.269424 96.594461 0.000000 0.000000
-9.288001 96.594461 0.000000 0.000000
-7.306577 96.594461 0.000000 0.000000
-5.325153 96.594461 0.098755 0.120834
-3.343729 96.594461 0.098030 0.106293
-1.362305 96.594461 0.103561 0.100434
0.619119 96.594461 0.093042 0.117714
2.600543 96.594461 0.102911 0.115277
4.581967 96.594461 0.096994 0.112215
6.563391 96.594461 0.093437 0.114803
8.544815 96.594461 0.098977 0.124253
10.526239 96.594461 0.095375 0.128747
12.507663 96.594461 0.102384 0.126192
14.489087 96.594461 0.102889 0.125982
16.470511 96.594461 0.109136 0.135025
18.451935 96.594461 0.108602 0.145150
20.433359 96.594461 0.103756 0.139571
22.414783 96.594461 0.099625 0.130771
24.396207 96.594461 0.097178 0.125155
26.377631 96.594461 0.099016 0.131061
28.359055 96.594461 0.103504 0.140145
30.340479 96.594461 0.106833 0.129924
32.321903 96.594461 0.097748 0.137368
34.303327 96.594461 0.094898 0.143127
36.284751 96.594461 0.118712 0.154578
38.266175 96.594461 0.110751 0.160830
40.247599 96.594461 0.117990 0.155406
42.229023 96.594461 0.112218 0.172471
44.210447 96.594461 0.110955 0.180409
46.191871 96.594461 0.114090 0.181075
48.173295 96.594461 0.123509 0.186047
50.154719 96.594461 0.127079 0.180307
52.136143 96.594461 0.137478 0.180511
54.117567 96.594461 0.133866 0.183899
56.098991 96.594461 0.129655 0.194140
58.080415 96.594461 0.120506 0.204411
60.061839 96.594461 0.125291 0.207468
62.043263 96.594461 0.129034 0.215264
64.024687 96.594461 0.125833 0.223382
66.006110 96.594461 0.124108 0.233962
67.987534 96.594461 0.000000 0.000000
-132.136287 94.613037 2.379290 4.854686
-130.154863 94.613037 1.491316 0.282335
-128.173439 94.613037 1.388217 1.538244
-126.192015 94.613037 0.183627 0.174147
-124.210591 94.613037 0.159417 0.137358
-122.229167 94.613037 0.134792 0.148469
-120.247743 94.613037 0.133416 0.125163
-118.266319 94.613037 0.141887 0.130054
-116.284895 94.613037 0.134234 0.115671
-114.303471 94.613037 0.167849 0.172683
-112.322047 94.613037 0.000000 0.000000
-110.340623 94.613037 0.000000 0.000000
-108.359199 94.613037 0.000000 0.000000
-106.377775 94.613037 0.000000 0.000000
-104.396351 94.613037 0.000000 0.000000
-102.414927 94.613037 0.000000 0.000000
-100.433503 94.613037 0.000000 0.000000
-98.452079 94.613037 0.000000 0.000000
-96.470655 94.613037 0.000000 0.000000
-94.489231 94.613037 0.000000 0.000000
-92.507807 94.613037 0.000000 0.000000
-90.526383 94.613037 0.000000 0.000000
-88.544959 94.613037 0.115419 0.108699
-86.563536 94.613037 0.091275 0.083293
-84.582112 94.613037 0.109970 0.088139
-82.600688 94.613037 0.101721 0.074871
-80.619264 94.613037 0.099518 0.093145
-78.637840 94.613037 0.106023 0.103772
-76.656416 94.613037 0.107800 0.113462
-74.674992 94.613037 0.110103 0.113487
-72.693568 94.613037 0.104423 0.100087
-70.712144 94.613037 0.127256 0.117318
-68.730720 94.613037 0.127314 0.103738
-66.749296 94.613037 0.112022 0.094276
-64.767872 94.613037 0.097273 0.103241
-62.786448 94.613037 0.117738 0.111156
-60.805024 94.613037 0.107834 0.131975
-58.823600 94.613037 0.119726 0.129547
-56.842176 94.613037 0.116946 0.107418
-54.860752 94.613037 0.112682 0.100278
-52.879328 94.613037 0.091763 0.110413
-50.897904 94.613037 0.101583 0.098853
-48.916480 94.613037 0.085541 0.109618
-46.935056 94.613037 0.098167 0.097106
-44.953632 94.613037 0.099081 0.093214
-42.972208 94.613037 0.089810 0.105470
-40.990784 94.613037 0.109218 0.102483
-39.009360 94.613037 0.123338 0.119469
-37.027936 94.613037 0.125718 0.114857
-35.046512 94.613037 0.108441 0.096002
-33.065088 94.613037 0.095740 0.101945
-31.083664 94.613037 0.099040 0.123708
-29.102240 94.613037 0.106167 0.121098
-27.120816 94.613037 0.105196 0.122017
-25.139392 94.613037 0.101588 0.101681
-23.157968 94.613037 0.110739 0.117905
-21.176544 94.613037 0.120582 0.128235
-19.195120 94.613037 0.120420 0.132888
-17.213696 94.613037 0.145649 0.175984
-15.232272 94.613037 0.000000 0.000000
-13.250848 94.613037 0.000000 0.000000
-11.269424 94.613037 0.000000 0.000000
-9.288001 94.613037 0.000000 0.000000
-7.306577 94.613037 0.000000 0.000000
-5.325153 94.613037 0.117503 0.122119
-3.343729 94.613037 0.097436 0.118312
-1.362305 94.613037 0.097632 0.121122
0.619119 94.613037 0.098636 0.118616
2.600543 94.613037 0.121096 0.124669
4.581967 94.613037 0.122633 0.114395
6.563391 94.613037 0.109416 0.117063
8.544815 94.613037 0.100268 0.134000
10.526239 94.613037 0.108809 0.144616
12.507663 94.613037 0.108785 0.139904
14.489087 94.613037 0.102951 0.138639
16.470511 94.613037 0.118441 0.129824
18.451935 94.613037 0.126363 0.131185
20.433359 94.613037 0.111760 0.131237
22.414783 94.613037 0.107571 0.129303
24.396207 94.613037 0.105437 0.135749
26.377631 94.613037 0.104588 0.138344
28.359055 94.613037 0.109655 0.158096
30.340479 94.613037 0.116855 0.158293
32.321903 94.613037 0.119703 0.156687
34.303327 94.613037 0.113394 0.163344
36.284751 94.613037 0.119305 0.164819
38.266175 94.613037 0.127946 0.161328
40.247599 94.613037 0.135001 0.165837
42.229023 94.613037 0.124252 0.168665
44.210447 94.613037 0.124090 0.170240
46.191871 94.613037 0.134256 0.180961
48.173295 94.613037 0.132417 0.197686
50.154719 94.613037 0.133555 0.211250
52.136143 94.613037 0.145030 0.211342
54.117567 94.613037 0.134636 0.211313
56.098991 94.613037 0.134684 0.222206
58.080415 94.613037 0.133822 0.234962
60.061839 94.613037 0.131084 0.241084
62.043263 94.613037 0.139278 0.244725
64.024687 94.613037 0.140820 0.241631
66.006110 94.613037 0.133686 0.250617
67.987534 94.613037 0.000000 0.000000
-132.136287 92.631613 1.790463 5.811702
-130.154863 92.631613 3.710204 4.089268
-128.173439 92.631613 0.236195 0.242002
-126.192015 92.631613 0.189307 0.196793
-124.210591 92.631613 0.165449 0.144551
-122.229167 92.631613 0.129778 0.142401
-120.247743 92.631613 0.125863 0.138994
-118.266319 92.631613 0.134922 0.126350
-116.284895 92.631613 0.121861 0.110461
-114.303471 92.631613 0.143764 0.164102
-112.322047 92.631613 0.000000 0.000000
-110.340623 92.631613 0.000000 0.000000
-108.359199 92.631613 0.000000 0.000000
-106.377775 92.631613 0.000000 0.000000
-104.396351 92.631613 0.000000 0.000000
-102.414927 92.631613 0.000000 0.000000
-100.433503 92.631613 0.000000 0.000000
-98.452079 92.631613 0.000000 0.000000
-96.470655 92.631613 0.000000 0.000000
-94.489231 92.631613 0.000000 0.000000
-92.507807 92.631613 0.000000 0.000000
-90.526383 92.631613 0.000000 0.000000
-88.544959 92.631613 0.115338 0.110319
-86.563536 92.631613 0.091826 0.080827
-84.582112 92.631613 0.088774 0.089130
-82.600688 92.631613 0.084702 0.078357
-80.619264 92.631613 0.101615 0.086711
-78.637840 92.631613 0.111127 0.105013
-76.656416 92.631613 0.112366 0.114242
-74.674992 92.631613 0.111087 0.117479
-72.693568 92.631613 0.106139 0.104716
-70.712144 92.631613 0.120458 0.105992
-68.730720 92.631613 0.118303 0.104328
-66.749296 92.631613 0.102027 0.093318
-64.767872 92.631613 0.102569 0.108764
-62.786448 92.631613 0.113028 0.093561
-60.805024 92.631613 0.103187 0.103056
-58.823600 92.631613 0.107778 0.107021
-56.842176 92.631613 0.116268 0.109487
-54.860752 92.631613 0.121640 0.115674
-52.879328 92.631613 0.083150 0.096631
-50.897904 92.631613 0.080781 0.084505
-48.916480 92.631613 0.077487 0.084780
-46.935056 92.631613 0.089141 0.090447
-44.953632 92.631613 0.096600 0.084807
-42.972208 92.631613 0.093431 0.091651
-40.990784 92.631613 0.095108 0.092322
-39.009360 92.631613 0.117204 0.111186
-37.027936 92.631613 0.112669 0.096422
-35.046512 92.631613 0.102223 0.098961
-33.065088 92.631613 0.090425 0.109340
-31.083664 92.631613 0.121687 0.114013
-29.102240 92.631613 0.116402 0.105507
-27.120816 92.631613 0.104364 0.112164
-25.139392 92.631613 0.104055 0.116577
-23.157968 92.631613 0.115253 0.119227
-21.176544 92.631613 0.111860 0.117967
-19.195120 92.631613 0.117062 0.131888
-17.213696 92.631613 0.162613 0.164224
-15.232272 92.631613 0.000000 0.000000
-13.250848 92.631613 0.000000 0.000000
-11.269424 92.631613 0.000000 0.000000
-9.288001 92.631613 0.000000 0.000000
-7.306577 92.631613 0.000000 0.000000
-5.325153 92.631613 0.123847 0.126967
-3.343729 92.631613 0.111108 0.123646
-1.362305 92.631613 0.098026 0.120556
0.619119 92.631613 0.095728 0.111663
2.600543 92.631613 0.103567 0.121234
4.581967 92.631613 0.114337 0.111808
6.563391 92.631613 0.120124 0.124722
8.544815 92.631613 0.112338 0.133438
10.526239 92.631613 0.123860 0.152872
12.507663 92.631613 0.119702 0.165308
14.489087 92.631613 0.117198 0.155053
16.470511 92.631613 0.118637 0.128298
18.451935 92.631613 0.116841 0.134498
20.433359 92.631613 0.112302 0.142800
22.414783 92.631613 0.116785 0.134664
24.396207 92.631613 0.129200 0.145048
26.377631 92.631613 0.125352 0.150588
28.359055 92.631613 0.134363 0.160369
30.340479 92.631613 0.128878 0.171101
32.321903 92.631613 0.127488 0.179758
34.303327 92.631613 0.137920 0.179257
36.284751 92.631613 0.134216 0.174337
38.266175 92.631613 0.133809 0.170874
40.247599 92.631613 0.131308 0.175278
42.229023 92.631613 0.130449 0.171226
44.210447 92.631613 0.134219 0.181460
46.191871 92.631613 0.138416 0.194132
48.173295 92.631613 0.141288 0.210637
50.154719 92.631613 0.138455 0.230511
52.136143 92.631613 0.142874 0.239910
54.117567 92.631613 0.132814 0.247244
56.098991 92.631613 0.138539 0.260763
58.080415 92.631613 0.153232 0.259212
60.061839 92.631613 0.148422 0.252693
62.043263 92.631613 0.151015 0.261240
64.024687 92.631613 0.162312 0.257773
66.006110 92.631613 0.163552 0.260216
67.987534 92.631613 0.000000 0.000000
-132.136287 90.650189 2.486851 4.845970
-130.154863 90.650189 0.301102 0.797353
-128.173439 90.650189 0.385246 1.332797
-126.192015 90.650189 0.204054 0.194292
-124.210591 90.650189 0.149529 0.161851
-122.229167 90.650189 0.141208 0.129817
-120.247743 90.650189 0.146109 0.125375
-118.266319 90.650189 0.139522 0.131090
-116.284895 90.650189 0.102534 0.110662
-114.303471 90.650189 0.126669 0.122961
-112.322047 90.650189 0.000000 0.000000
-110.340623 90.650189 0.000000 0.000000
-108.359199 90.650189 0.000000 0.000000
-106.377775 90.650189 0.000000 0.000000
-104.396351 90.650189 0.000000 0.000000
-102.414927 90.650189 0.000000 0.000000
-100.433503 90.650189 0.000000 0.000000
-98.452079 90.650189 0.000000 0.000000
-96.470655 90.650189 0.000000 0.000000
-94.489231 90.650189 0.000000 0.000000
-92.507807 90.650189 0.000000 0.000000
-90.526383 90.650189 0.000000 0.000000
-88.544959 90.650189 0.111956 0.092084
-86.563536 90.650189 0.091312 0.067031
-84.582112 90.650189 0.102883 0.090588
-82.600688 90.650189 0.100554 0.080827
-80.619264 90.650189 0.110533 0.092157
-78.637840 90.650189 0.113568 0.104509
-76.656416 90.650189 0.120062 0.109748
-74.674992 90.650189 0.113931 0.115893
-72.693568 90.650189 0.100455 0.100430
-70.712144 90.650189 0.118962 0.115967
-68.730720 90.650189 0.114163 0.102229
-66.749296 90.650189 0.110387 0.080018
-64.767872 90.650189 0.091436 0.090945
-62.786448 90.650189 0.087283 0.089644
-60.805024 90.650189 0.099041 0.098430
-58.823600 90.650189 0.098519 0.097008
-56.842176 90.650189 0.106468 0.105919
-54.860752 90.650189 0.102641 0.108909
-52.879328 90.650189 0.090594 0.096413
-50.897904 90.650189 0.085743 0.086041
-48.916480 90.650189 0.082006 0.088090
-46.935056 90.650189 0.088250 0.082744
-44.953632 90.650189 0.083986 0.086578
-42.972208 90.650189 0.089225 0.091504
-40.990784 90.650189 0.086977 0.092299
-39.009360 90.650189 0.109452 0.102286
-37.027936 90.650189 0.106723 0.089317
-35.046512 90.650189 0.090464 0.101431
-33.065088 90.650189 0.085981 0.095930
-31.083664 90.650189 0.095913 0.087637
-29.102240 90.650189 0.113404 0.095092
-27.120816 90.650189 0.119298 0.103174
-25.139392 90.650189 0.108165 0.105451
-23.157968 90.650189 0.119238 0.108965
-21.176544 90.650189 0.111388 0.107722
-19.195120 90.650189 0.110586 0.113982
-17.213696 90.650189 0.147133 0.133136
-15.232272 90.650189 0.000000 0.000000
-13.250848 90.650189 0.000000 0.000000
-11.269424 90.650189 0.000000 0.000000
-9.288001 90.650189 0.000000 0.000000
-7.306577 90.650189 0.000000 0.000000
-5.325153 90.650189 0.114898 0.121936
-3.343729 90.650189 0.104326 0.125097
-1.362305 90.650189 0.093133 0.117671
0.619119 90.650189 0.101004 0.112260
2.600543 90.650189 0.112388 0.120642
4.581967 90.650189 0.112001 0.121022
6.563391 90.650189 0.113056 0.123685
8.544815 90.650189 0.111441 0.128178
10.526239 90.650189 0.123048 0.135188
12.507663 90.650189 0.117927 0.153552
14.489087 90.650189 0.118462 0.153165
16.470511 90.650189 0.123138 0.152364
18.451935 90.650189 0.121639 0.155589
20.433359 90.650189 0.123402 0.159966
22.414783 90.650189 0.129684 0.158038
24.396207 90.650189 0.137142 0.163258
26.377631 90.650189 0.139399 0.164235
28.359055 90.650189 0.136754 0.173225
30.340479 90.650189 0.128892 0.171651
32.321903 90.650189 0.125047 0.176995
34.303327 90.650189 0.141255 0.183512
36.284751 90.650189 0.147166 0.178359
38.266175 90.650189 0.134308 0.192104
40.247599 90.650189 0.134636 0.210345
42.229023 90.650189 0.145767 0.212782
44.210447 90.650189 0.138225 0.211007
46.191871 90.650189 0.151184 0.212379
48.173295 90.650189 0.160172 0.218159
50.154719 90.650189 0.153671 0.235625
52.136143 90.650189 0.167821 0.255140
54.117567 90.650189 0.172293 0.270459
56.098991 90.650189 0.173070 0.278866
58.080415 90.650189 0.167649 0.266075
60.061839 90.650189 0.168345 0.271075
62.043263 90.650189 0.171287 0.277250
64.024687 90.650189 0.187831 0.277595
66.006110 90.650189 0.197446 0.292235
67.987534 90.650189 0.000000 0.000000
-132.136287 88.668765 2.717459 5.562477
-130.154863 88.668765 2.605494 1.438401
-128.173439 88.668765 0.261573 0.225726
-126.192015 88.668765 0.207688 0.188659
-124.210591 88.668765 0.172259 0.180103
-122.229167 88.668765 0.151087 0.150428
-120.247743 88.668765 0.145370 0.136448
-118.266319 88.668765 0.139961 0.124048
-116.284895 88.668765 0.114439 0.116518
-114.303471 88.668765 0.130275 0.138586
-112.322047 88.668765 0.000000 0.000000
-110.340623 88.668765 0.000000 0.000000
-108.359199 88.668765 0.000000 0.000000
-106.377775 88.668765 0.000000 0.000000
-104.396351 88.668765 0.000000 0.000000
-102.414927 88.668765 0.000000 0.000000
-100.433503 88.668765 0.000000 0.000000
-98.452079 88.668765 0.000000 0.000000
-96.470655 88.668765 0.000000 0.000000
-94.489231 88.668765 0.000000 0.000000
-92.507807 88.668765 0.000000 0.000000
-90.526383 88.668765 0.000000 0.000000
-88.544959 88.668765 0.109825 0.082529
-86.563536 88.668765 0.103451 0.079580
-84.582112 88.668765 0.108886 0.087713
-82.600688 88.668765 0.098346 0.085963
-80.619264 88.668765 0.104631 0.088272
-78.637840 88.668765 0.107709 0.090385
-76.656416 88.668765 0.122883 0.102539
-74.674992 88.668765 0.122480 0.088217
-72.693568 88.668765 0.106200 0.087739
-70.712144 88.668765 0.095975 0.087982
-68.730720 88.668765 0.100195 0.087377
-66.749296 88.668765 0.084318 0.077801
-64.767872 88.668765 0.080702 0.080999
-62.786448 88.668765 0.079901 0.076284
-60.805024 88.668765 0.085291 0.077523
-58.823600 88.668765 0.076084 0.087986
-56.842176 88.668765 0.073147 0.087366
-54.860752 88.668765 0.092336 0.095381
-52.879328 88.668765 0.098009 0.091927
-50.897904 88.668765 0.087302 0.079620
-48.916480 88.668765 0.085677 0.085435
-46.935056 88.668765 0.072945 0.079994
-44.953632 88.668765 0.067464 0.070052
-42.972208 88.668765 0.071957 0.081364
-40.990784 88.668765 0.083606 0.090610
-39.009360 88.668765 0.092415 0.075628
-37.027936 88.668765 0.092452 0.078807
-35.046512 88.668765 0.093826 0.096995
-33.065088 88.668765 0.094392 0.092604
-31.083664 88.668765 0.093201 0.091162
-29.102240 88.668765 0.105518 0.095398
-27.120816 88.668765 0.098911 0.094627
-25.139392 88.668765 0.096724 0.098953
-23.157968 88.668765 0.103162 0.103811
-21.176544 88.668765 0.116066 0.107273
-19.195120 88.668765 0.101651 0.134705
-17.213696 88.668765 0.118883 0.131402
-15.232272 88.668765 0.000000 0.000000
-13.250848 88.668765 0.000000 0.000000
-11.269424 88.668765 0.000000 0.000000
-9.288001 88.668765 0.000000 0.000000
-7.306577 88.668765 0.000000 0.000000
-5.325153 88.668765 0.108871 0.111577
-3.343729 88.668765 0.101790 0.115920
-1.362305 88.668765 0.097621 0.110632
0.619119 88.668765 0.104436 0.112489
2.600543 88.668765 0.114361 0.142018
4.581967 88.668765 0.121324 0.145085
6.563391 88.668765 0.125473 0.129569
8.544815 88.668765 0.123974 0.123697
10.526239 88.668765 0.129816 0.131385
12.507663 88.668765 0.123584 0.139066
14.489087 88.668765 0.131027 0.151156
16.470511 88.668765 0.136313 0.162088
18.451935 88.668765 0.124406 0.160663
20.433359 88.668765 0.127106 0.166053
22.414783 88.668765 0.145371 0.179570
24.396207 88.668765 0.153137 0.183442
26.377631 88.668765 0.148217 0.186646
28.359055 88.668765 0.141378 0.192161
30.340479 88.668765 0.149981 0.179285
32.321903 88.668765 0.157872 0.191207
34.303327 88.668765 0.154545 0.199416
36.284751 88.668765 0.153566 0.200556
38.266175 88.668765 0.144746 0.215954
40.247599 88.668765 0.160115 0.242597
42.229023 88.668765 0.174599 0.252996
44.210447 88.668765 0.159782 0.243628
46.191871 88.668765 0.172371 0.237793
48.173295 88.668765 0.174971 0.252632
50.154719 88.668765 0.172924 0.260740
52.136143 88.668765 0.190342 0.270252
54.117567 88.668765 0.200428 0.287147
56.098991 88.668765 0.187043 0.294616
58.080415 88.668765 0.183931 0.295862
60.061839 88.668765 0.185836 0.302206
62.043263 88.668765 0.199815 0.314706
64.024687 88.668765 0.218036 0.334573
66.006110 88.668765 0.219849 0.341154
67.987534 88.668765 0.000000 0.000000
-132.136287 86.687341 1.741742 4.796433
-130.154863 86.687341 0.276592 0.286767
-128.173439 86.687341 0.239511 0.212599
-126.192015 86.687341 0.205348 0.204793
-124.210591 86.687341 0.159674 0.172407
-122.229167 86.687341 0.147954 0.153407
-120.247743 86.687341 0.140162 0.133444
-118.266319 86.687341 0.138581 0.117848
-116.284895 86.687341 0.115114 0.107747
-114.303471 86.687341 0.134722 0.133461
-112.322047 86.687341 0.000000 0.000000
-110.340623 86.687341 0.000000 0.000000
-108.359199 86.687341 0.000000 0.000000
-106.377775 86.687341 0.000000 0.000000
-104.396351 86.687341 0.000000 0.000000
-102.414927 86.687341 0.000000 0.000000
-100.433503 86.687341 0.000000 0.000000
-98.452079 86.687341 0.000000 0.000000
-96.470655 86.687341 0.000000 0.000000
-94.489231 86.687341 0.000000 0.000000
-92.507807 86.687341 0.000000 0.000000
-90.526383 86.687341 0.000000 0.000000
-88.544959 86.687341 0.109615 0.078632
-86.563536 86.687341 0.104061 0.085991
-84.582112 86.687341 0.115144 0.086732
-82.600688 86.687341 0.094609 0.076439
-80.619264 86.687341 0.096308 0.088464
-78.637840 86.687341 0.112105 0.099987
-76.656416 86.687341 0.123753 0.106881
-74.674992 86.687341 0.125165 0.098262
-72.693568 86.687341 0.102738 0.076338
-70.712144 86.687341 0.092609 0.070696
-68.730720 86.687341 0.092392 0.067047
-66.749296 86.687341 0.082657 0.079998
-64.767872 86.687341 0.091298 0.074529
-62.786448 86.687341 0.078712 0.075654
-60.805024 86.687341 0.079155 0.068553
-58.823600 86.687341 0.079360 0.083454
-56.842176 86.687341 0.076274 0.079172
-54.860752 86.687341 0.085912 0.086852
-52.879328 86.687341 0.077893 0.089054
-50.897904 86.687341 0.080447 0.077754
-48.916480 86.687341 0.076648 0.076212
-46.935056 86.687341 0.069795 0.078399
-44.953632 86.687341 0.066376 0.074922
-42.972208 86.687341 0.068840 0.078611
-40.990784 86.687341 0.071988 0.076141
-39.009360 86.687341 0.085589 0.071940
-37.027936 86.687341 0.093128 0.082236
-35.046512 86.687341 0.093294 0.091149
-33.065088 86.687341 0.091148 0.091798
-31.083664 86.687341 0.093203 0.090519
-29.102240 86.687341 0.094397 0.095140
-27.120816 86.687341 0.111978 0.098194
-25.139392 86.687341 0.094088 0.089726
-23.157968 86.687341 0.091591 0.103691
-21.176544 86.687341 0.113840 0.113025
-19.195120 86.687341 0.121756 0.125623
-17.213696 86.687341 0.121556 0.130866
-15.232272 86.687341 0.000000 0.000000
-13.250848 86.687341 0.000000 0.000000
-11.269424 86.687341 0.000000 0.000000
-9.288001 86.687341 0.000000 0.000000
-7.306577 86.687341 0.143433 0.143755
-5.325153 86.687341 0.105912 0.110454
-3.343729 86.687341 0.112938 0.115931
-1.362305 86.687341 0.108266 0.120582
0.619119 86.687341 0.117829 0.125112
2.600543 86.687341 0.129746 0.129813
4.581967 86.687341 0.145649 0.141503
6.563391 86.687341 0.127774 0.146855
8.544815 86.687341 0.142904 0.145441
10.526239 86.687341 0.136443 0.141786
12.507663 86.687341 0.134215 0.150535
14.489087 86.687341 0.133640 0.160412
16.470511 86.687341 0.140276 0.176387
18.451935 86.687341 0.131934 0.177751
20.433359 86.687341 0.138758 0.186379
22.414783 86.687341 0.156320 0.200512
24.396207 86.687341 0.162879 0.207412
26.377631 86.687341 0.152946 0.199108
28.359055 86.687341 0.146195 0.200203
30.340479 86.687341 0.169919 0.200408
32.321903 86.687341 0.190530 0.205386
34.303327 86.687341 0.177813 0.224016
36.284751 86.687341 0.167358 0.236854
38.266175 86.687341 0.165224 0.236873
40.247599 86.687341 0.169025 0.245458
42.229023 86.687341 0.176895 0.267501
44.210447 86.687341 0.180312 0.275413
46.191871 86.687341 0.193302 0.264824
48.173295 86.687341 0.189907 0.268093
50.154719 86.687341 0.199717 0.278718
52.136143 86.687341 0.213667 0.290477
54.117567 86.687341 0.217612 0.303880
56.098991 86.687341 0.197708 0.311810
58.080415 86.687341 0.197397 0.324878
60.061839 86.687341 0.211721 0.341261
62.043263 86.687341 0.224687 0.350347
64.024687 86.687341 0.230771 0.372750
66.006110 86.687341 0.227442 0.382022
67.987534 86.687341 0.000000 0.000000
-132.136287 84.705917 1.692127 4.794486
-130.154863 84.705917 1.985688 1.847488
-128.173439 84.705917 0.277339 0.235301
-126.192015 84.705917 0.197955 0.201587
-124.210591 84.705917 0.162783 0.174128
-122.229167 84.705917 0.145943 0.164258
-120.247743 84.705917 0.129810 0.129565
-118.266319 84.705917 0.128703 0.120444
-116.284895 84.705917 0.122561 0.090607
-114.303471 84.705917 0.121725 0.113379
-112.322047 84.705917 0.000000 0.000000
-110.340623 84.705917 0.000000 0.000000
-108.359199 84.705917 0.000000 0.000000
-106.377775 84.705917 0.000000 0.000000
-104.396351 84.705917 0.000000 0.000000
-102.414927 84.705917 0.000000 0.000000
-100.433503 84.705917 0.000000 0.000000
-98.452079 84.705917 0.000000 0.000000
-96.470655 84.705917 0.000000 0.000000
-94.489231 84.705917 0.000000 0.000000
-92.507807 84.705917 0.000000 0.000000
-90.526383 84.705917 0.000000 0.000000
-88.544959 84.705917 0.097963 0.073782
-86.563536 84.705917 0.076374 0.077438
-84.582112 84.705917 0.091586 0.073796
-82.600688 84.705917 0.085853 0.072818
-80.619264 84.705917 0.108512 0.088361
-78.637840 84.705917 0.113024 0.097873
-76.656416 84.705917 0.125618 0.110009
-74.674992 84.705917 0.103014 0.106564
-72.693568 84.705917 0.087991 0.078321
-70.712144 84.705917 0.084499 0.070819
-68.730720 84.705917 0.088527 0.066312
-66.749296 84.705917 0.081242 0.073036
-64.767872 84.705917 0.082843 0.064729
-62.786448 84.705917 0.067413 0.068022
-60.805024 84.705917 0.071810 0.068061