TITLE = "B00010"
VARIABLES = "position", "position(2)", "Vx", "Vy"
ZONE T="Frame 0", I=102, J=78
-132.136287 98.575885 0.000000 0.000000
-130.154863 98.575885 13.057875 4.691243
-128.173439 98.575885 11.166179 3.331241
-126.192015 98.575885 11.279005 -2.498859
-124.210591 98.575885 8.956433 -2.074302
-122.229167 98.575885 6.453894 -2.163587
-120.247743 98.575885 6.414802 -4.303632
-118.266319 98.575885 5.905980 2.928769
-116.284895 98.575885 9.346366 2.556807
-114.303471 98.575885 0.000000 0.000000
-112.322047 98.575885 0.000000 0.000000
-110.340623 98.575885 0.000000 0.000000
-108.359199 98.575885 0.000000 0.000000
-106.377775 98.575885 0.000000 0.000000
-104.396351 98.575885 0.000000 0.000000
-102.414927 98.575885 0.000000 0.000000
-100.433503 98.575885 0.000000 0.000000
-98.452079 98.575885 0.000000 0.000000
-96.470655 98.575885 0.000000 0.000000
-94.489231 98.575885 0.000000 0.000000
-92.507807 98.575885 0.000000 0.000000
-90.526383 98.575885 0.000000 0.000000
-88.544959 98.575885 0.000000 0.000000
-86.563536 98.575885 9.892429 -1.029848
-84.582112 98.575885 11.366026 1.238534
-82.600688 98.575885 10.184259 1.754935
-80.619264 98.575885 10.487683 1.762493
-78.637840 98.575885 10.061453 3.448496
-76.656416 98.575885 10.941214 -1.571050
-74.674992 98.575885 9.819561 1.688089
-72.693568 98.575885 9.723485 0.695226
-70.712144 98.575885 8.454165 0.410345
-68.730720 98.575885 9.879537 0.323953
-66.749296 98.575885 10.869624 2.136069
-64.767872 98.575885 11.220013 1.032860
-62.786448 98.575885 11.140786 -2.693038
-60.805024 98.575885 10.255416 -2.180613
-58.823600 98.575885 11.059001 0.418435
-56.842176 98.575885 9.517476 2.222500
-54.860752 98.575885 11.682087 2.058752
-52.879328 98.575885 10.441013 -0.403633
-50.897904 98.575885 9.883789 3.305947
-48.916480 98.575885 11.084039 4.100241
-46.935056 98.575885 12.993648 3.098895
-44.953632 98.575885 12.394260 2.668866
-42.972208 98.575885 10.636216 0.208135
-40.990784 98.575885 11.173363 -0.396271
-39.009360 98.575885 11.274261 -1.991158
-37.027936 98.575885 10.704026 -2.608221
-35.046512 98.575885 9.357429 -0.643734
-33.065088 98.575885 10.522739 2.517027
-31.083664 98.575885 11.464484 -3.574452
-29.102240 98.575885 10.191169 3.748061
-27.120816 98.575885 10.167135 -0.230299
-25.139392 98.575885 10.063382 -0.009842
-23.157968 98.575885 10.472704 0.289015
-21.176544 98.575885 11.990234 -0.289605
-19.195120 98.575885 11.237650 3.049233
-17.213696 98.575885 0.000000 0.000000
-15.232272 98.575885 0.000000 0.000000
-13.250848 98.575885 0.000000 0.000000
-11.269424 98.575885 0.000000 0.000000
-9.288001 98.575885 0.000000 0.000000
-7.306577 98.575885 0.000000 0.000000
-5.325153 98.575885 12.481695 0.617122
-3.343729 98.575885 12.733784 -1.604768
-1.362305 98.575885 11.682835 -0.032852
0.619119 98.575885 13.080315 -1.914038
2.600543 98.575885 11.225268 -1.838079
4.581967 98.575885 10.544136 2.375737
6.563391 98.575885 12.540314 2.041922
8.544815 98.575885 11.621638 1.339000
10.526239 98.575885 11.535916 2.913711
12.507663 98.575885 12.049009 4.016940
14.489087 98.575885 11.576956 1.933800
16.470511 98.575885 11.321069 1.930277
18.451935 98.575885 10.661628 -0.224571
20.433359 98.575885 10.667237 1.936202
22.414783 98.575885 10.174339 0.730775
24.396207 98.575885 10.625566 -2.169768
26.377631 98.575885 11.485526 -4.797869
28.359055 98.575885 10.673398 -3.754557
30.340479 98.575885 9.690790 -0.446268
32.321903 98.575885 9.478641 0.670189
34.303327 98.575885 9.859105 1.210466
36.284751 98.575885 9.869912 -1.276248
38.266175 98.575885 10.562087 1.300853
40.247599 98.575885 10.692451 -0.416545
42.229023 98.575885 10.769258 -1.931891
44.210447 98.575885 10.039978 0.174751
46.191871 98.575885 10.422708 -0.631176
48.173295 98.575885 10.898087 1.578628
50.154719 98.575885 9.563024 -2.516298
52.136143 98.575885 8.633799 1.395708
54.117567 98.575885 10.638007 1.508515
56.098991 98.575885 12.637216 -3.028762
58.080415 98.575885 11.570599 0.960424
60.061839 98.575885 10.435560 2.800452
62.043263 98.575885 12.251987 -2.076802
64.024687 98.575885 11.303294 -1.054355
66.006110 98.575885 10.458315 -0.796617
67.987534 98.575885 0.000000 0.000000
-132.136287 96.594461 9.588573 -1.085179
-130.154863 96.594461 9.440178 5.003051
-128.173439 96.594461 11.421554 0.942040
-126.192015 96.594461 10.298680 -0.539155
-124.210591 96.594461 10.283111 -1.026246
-122.229167 96.594461 10.811282 -0.596592
-120.247743 96.594461 7.476302 -1.170311
-118.266319 96.594461 7.043675 1.453637
-116.284895 96.594461 10.948064 3.381847
-114.303471 96.594461 10.613796 1.091379
-112.322047 96.594461 0.000000 0.000000
-110.340623 96.594461 0.000000 0.000000
-108.359199 96.594461 0.000000 0.000000
-106.377775 96.594461 0.000000 0.000000
-104.396351 96.594461 0.000000 0.000000
-102.414927 96.594461 0.000000 0.000000
-100.433503 96.594461 0.000000 0.000000
-98.452079 96.594461 0.000000 0.000000
-96.470655 96.594461 0.000000 0.000000
-94.489231 96.594461 0.000000 0.000000
-92.507807 96.594461 0.000000 0.000000
-90.526383 96.594461 0.000000 0.000000
-88.544959 96.594461 0.000000 0.000000
-86.563536 96.594461 9.893631 -0.092179
-84.582112 96.594461 10.121449 4.224760
-82.600688 96.594461 10.129795 1.204009
-80.619264 96.594461 10.193707 1.184739
-78.637840 96.594461 10.063008 0.933241
-76.656416 96.594461 10.015000 0.420777
-74.674992 96.594461 9.754526 -0.323304
-72.693568 96.594461 10.045568 -1.073192
-70.712144 96.594461 9.119433 -0.016278
-68.730720 96.594461 10.165442 -1.024002
-66.749296 96.594461 10.283308 -0.050115
-64.767872 96.594461 10.483982 0.875903
-62.786448 96.594461 10.994556 2.642785
-60.805024 96.594461 10.743157 4.122248
-58.823600 96.594461 10.014705 2.727149
-56.842176 96.594461 10.103458 -0.856652
-54.860752 96.594461 10.456465 -4.166339
-52.879328 96.594461 11.012666 -1.530246
-50.897904 96.594461 11.443639 2.025762
-48.916480 96.594461 11.417027 3.667516
-46.935056 96.594461 12.191972 2.710379
-44.953632 96.594461 12.752916 1.696770
-42.972208 96.594461 10.720206 0.158512
-40.990784 96.594461 10.607595 2.026431
-39.009360 96.594461 11.977814 -3.583861
-37.027936 96.594461 12.621627 -2.300979
-35.046512 96.594461 11.486057 -2.193801
-33.065088 96.594461 12.356744 2.463310
-31.083664 96.594461 12.903477 -1.192140
-29.102240 96.594461 11.980333 2.431816
-27.120816 96.594461 11.716789 0.540119
-25.139392 96.594461 11.295953 0.713729
-23.157968 96.594461 11.526999 1.031187
-21.176544 96.594461 12.603832 0.754100
-19.195120 96.594461 12.032672 4.346779
-17.213696 96.594461 10.545966 -3.662497
-15.232272 96.594461 0.000000 0.000000
-13.250848 96.594461 0.000000 0.000000
-11.269424 96.594461 0.000000 0.000000
-9.288001 96.594461 0.000000 0.000000
-7.306577 96.594461 0.000000 0.000000
-5.325153 96.594461 12.632984 1.317505
-3.343729 96.594461 10.723886 -1.995193
-1.362305 96.594461 10.676173 0.347062
0.619119 96.594461 13.721057 0.724122
2.600543 96.594461 12.045053 0.963790
4.581967 96.594461 11.464110 0.887260
6.563391 96.594461 12.531160 -0.502287
8.544815 96.594461 12.066823 0.437469
10.526239 96.594461 11.111478 2.918101
12.507663 96.594461 11.390828 1.543729
14.489087 96.594461 11.981514 -0.343676
16.470511 96.594461 10.691665 0.724437
18.451935 96.594461 9.606013 -2.982683
20.433359 96.594461 11.077720 2.090915
22.414783 96.594461 11.599337 -0.065566
24.396207 96.594461 10.128378 0.321336
26.377631 96.594461 10.148219 -2.038753
28.359055 96.594461 10.952473 0.332358
30.340479 96.594461 10.605096 0.879091
32.321903 96.594461 10.309900 1.629629
34.303327 96.594461 11.379549 1.641242
36.284751 96.594461 10.741208 -2.425635
38.266175 96.594461 10.330962 -0.500496
40.247599 96.594461 9.767182 1.215268
42.229023 96.594461 9.905244 -1.597131
44.210447 96.594461 10.317380 -0.661449
46.191871 96.594461 10.219376 1.646006
48.173295 96.594461 10.736603 0.886335
50.154719 96.594461 11.590007 1.640455
52.136143 96.594461 10.895803 3.195679
54.117567 96.594461 12.036727 2.251356
56.098991 96.594461 13.306440 0.460932
58.080415 96.594461 13.085412 3.225618
60.061839 96.594461 9.749448 -3.047619
62.043263 96.594461 10.100132 0.482072
64.024687 96.594461 11.719250 0.985481
66.006110 96.594461 11.570992 -1.121889
67.987534 96.594461 0.000000 0.000000
-132.136287 94.613037 6.750585 0.539174
-130.154863 94.613037 8.171567 -0.689656
-128.173439 94.613037 11.227847 -4.216277
-126.192015 94.613037 8.747511 3.280240
-124.210591 94.613037 9.108903 6.160903
-122.229167 94.613037 9.841902 3.743141
-120.247743 94.613037 9.382052 -0.586612
-118.266319 94.613037 10.905468 4.989982
-116.284895 94.613037 13.036223 1.720843
-114.303471 94.613037 10.297165 2.196439
-112.322047 94.613037 0.000000 0.000000
-110.340623 94.613037 0.000000 0.000000
-108.359199 94.613037 0.000000 0.000000
-106.377775 94.613037 0.000000 0.000000
-104.396351 94.613037 0.000000 0.000000
-102.414927 94.613037 0.000000 0.000000
-100.433503 94.613037 0.000000 0.000000
-98.452079 94.613037 0.000000 0.000000
-96.470655 94.613037 0.000000 0.000000
-94.489231 94.613037 0.000000 0.000000
-92.507807 94.613037 0.000000 0.000000
-90.526383 94.613037 0.000000 0.000000
-88.544959 94.613037 0.000000 0.000000
-86.563536 94.613037 10.270966 0.492190
-84.582112 94.613037 9.307668 1.082994
-82.600688 94.613037 9.638629 1.974368
-80.619264 94.613037 9.476967 1.093958
-78.637840 94.613037 9.995356 1.778929
-76.656416 94.613037 10.551064 2.376426
-74.674992 94.613037 12.063477 3.013054
-72.693568 94.613037 11.015913 0.201324
-70.712144 94.613037 9.483403 1.825698
-68.730720 94.613037 10.644266 -2.439945
-66.749296 94.613037 9.724725 -1.530974
-64.767872 94.613037 8.761191 0.839704
-62.786448 94.613037 9.908413 2.330878
-60.805024 94.613037 10.623736 1.750290
-58.823600 94.613037 10.155068 2.160517
-56.842176 94.613037 9.416873 -0.924698
-54.860752 94.613037 9.204545 -1.837075
-52.879328 94.613037 11.304200 1.370454
-50.897904 94.613037 13.406531 3.634861
-48.916480 94.613037 11.115375 1.738617
-46.935056 94.613037 10.643735 2.085423
-44.953632 94.613037 11.705018 1.963070
-42.972208 94.613037 9.748857 -0.643163
-40.990784 94.613037 9.316092 1.145549
-39.009360 94.613037 11.385080 -2.908829
-37.027936 94.613037 12.596943 -3.428734
-35.046512 94.613037 10.317360 -3.640963
-33.065088 94.613037 12.424082 -0.039210
-31.083664 94.613037 12.625072 -0.725618
-29.102240 94.613037 11.569181 1.790483
-27.120816 94.613037 12.354933 0.187369
-25.139392 94.613037 11.926026 0.070054
-23.157968 94.613037 11.893292 0.847893
-21.176544 94.613037 12.629815 2.028852
-19.195120 94.613037 11.751392 1.375139
-17.213696 94.613037 10.126449 -1.034218
-15.232272 94.613037 0.000000 0.000000
-13.250848 94.613037 0.000000 0.000000
-11.269424 94.613037 0.000000 0.000000
-9.288001 94.613037 0.000000 0.000000
-7.306577 94.613037 0.000000 0.000000
-5.325153 94.613037 11.579850 3.543745
-3.343729 94.613037 10.397099 3.295495
-1.362305 94.613037 10.589467 3.877934
0.619119 94.613037 11.748382 4.056366
2.600543 94.613037 11.034770 5.465912
4.581967 94.613037 11.170882 2.731342
6.563391 94.613037 11.871758 -1.582605
8.544815 94.613037 12.806653 0.757840
10.526239 94.613037 10.910862 2.157525
12.507663 94.613037 10.906748 -0.817560
14.489087 94.613037 11.442636 0.795377
16.470511 94.613037 11.953366 1.413483
18.451935 94.613037 10.537974 2.804093
20.433359 94.613037 11.589731 2.183841
22.414783 94.613037 12.891253 0.182704
24.396207 94.613037 11.104805 2.463054
26.377631 94.613037 10.911924 1.938386
28.359055 94.613037 11.494285 2.273815
30.340479 94.613037 10.322164 3.142337
32.321903 94.613037 11.512866 2.724492
34.303327 94.613037 12.398591 1.134624
36.284751 94.613037 11.737870 -0.120976
38.266175 94.613037 11.347720 4.185885
40.247599 94.613037 10.622181 3.851971
42.229023 94.613037 10.425679 0.123535
44.210447 94.613037 11.630239 -1.583156
46.191871 94.613037 10.835099 -0.669264
48.173295 94.613037 10.290512 1.161000
50.154719 94.613037 11.856267 1.560362
52.136143 94.613037 11.641598 2.587474
54.117567 94.613037 11.553159 0.786145
56.098991 94.613037 12.677213 1.949252
58.080415 94.613037 12.164198 3.870573
60.061839 94.613037 10.085900 1.262076
62.043263 94.613037 9.299696 -3.349133
64.024687 94.613037 10.961980 1.727141
66.006110 94.613037 10.847342 -1.949665
67.987534 94.613037 0.000000 0.000000
-132.136287 92.631613 7.705675 -0.421801
-130.154863 92.631613 5.253998 1.658032
-128.173439 92.631613 9.616977 1.258828
-126.192015 92.631613 9.360833 -0.660682
-124.210591 92.631613 8.782134 0.457212
-122.229167 92.631613 8.311459 2.256179
-120.247743 92.631613 9.809542 -1.976553
-118.266319 92.631613 10.967649 3.450012
-116.284895 92.631613 11.358330 0.599131
-114.303471 92.631613 9.725749 -0.600056
-112.322047 92.631613 0.000000 0.000000
-110.340623 92.631613 0.000000 0.000000
-108.359199 92.631613 0.000000 0.000000
-106.377775 92.631613 0.000000 0.000000
-104.396351 92.631613 0.000000 0.000000
-102.414927 92.631613 0.000000 0.000000
-100.433503 92.631613 0.000000 0.000000
-98.452079 92.631613 0.000000 0.000000
-96.470655 92.631613 0.000000 0.000000
-94.489231 92.631613 0.000000 0.000000
-92.507807 92.631613 0.000000 0.000000
-90.526383 92.631613 0.000000 0.000000
-88.544959 92.631613 11.216568 -2.828875
-86.563536 92.631613 11.598904 -1.500858
-84.582112 92.631613 9.641384 1.378544
-82.600688 92.631613 9.204998 1.905023
-80.619264 92.631613 9.381364 1.183873
-78.637840 92.631613 9.812790 -1.601481
-76.656416 92.631613 11.733205 2.379910
-74.674992 92.631613 12.722780 3.494536
-72.693568 92.631613 11.846465 1.231783
-70.712144 92.631613 10.062437 5.739436
-68.730720 92.631613 10.709262 2.733330
-66.749296 92.631613 10.400249 2.066232
-64.767872 92.631613 9.973605 0.736975
-62.786448 92.631613 9.446399 3.992749
-60.805024 92.631613 10.443552 -0.632632
-58.823600 92.631613 11.718974 0.942256
-56.842176 92.631613 10.762191 -1.424112
-54.860752 92.631613 10.227721 1.579376
-52.879328 92.631613 10.568543 1.525522
-50.897904 92.631613 12.086487 0.993867
-48.916480 92.631613 10.969637 0.614996
-46.935056 92.631613 10.567126 0.136486
-44.953632 92.631613 10.569823 1.375788
-42.972208 92.631613 10.083991 0.951389
-40.990784 92.631613 9.854184 3.088876
-39.009360 92.631613 9.624791 -0.133219
-37.027936 92.631613 10.896001 -1.542804
-35.046512 92.631613 10.914326 -0.896157
-33.065088 92.631613 11.078409 0.719496
-31.083664 92.631613 10.621650 1.194994
-29.102240 92.631613 10.376687 2.111228
-27.120816 92.631613 11.721690 -0.027675
-25.139392 92.631613 12.400913 -0.161327
-23.157968 92.631613 12.659911 1.937953
-21.176544 92.631613 12.157053 3.070826
-19.195120 92.631613 10.785162 0.879800
-17.213696 92.631613 9.859755 0.887221
-15.232272 92.631613 0.000000 0.000000
-13.250848 92.631613 0.000000 0.000000
-11.269424 92.631613 0.000000 0.000000
-9.288001 92.631613 0.000000 0.000000
-7.306577 92.631613 0.000000 0.000000
-5.325153 92.631613 11.720116 2.851609
-3.343729 92.631613 12.349303 3.016952
-1.362305 92.631613 11.642858 2.166599
0.619119 92.631613 10.301929 3.031636
2.600543 92.631613 11.081676 4.513303
4.581967 92.631613 11.426317 3.369506
6.563391 92.631613 10.073913 0.716898
8.544815 92.631613 10.548289 1.357030
10.526239 92.631613 10.263269 2.270194
12.507663 92.631613 9.978230 -1.282527
14.489087 92.631613 10.375801 0.997823
16.470511 92.631613 11.842627 -0.016967
18.451935 92.631613 12.223820 1.585262
20.433359 92.631613 12.260117 1.502591
22.414783 92.631613 11.045261 3.108402
24.396207 92.631613 10.473786 4.158229
26.377631 92.631613 12.372687 -0.288602
28.359055 92.631613 12.692369 0.053500
30.340479 92.631613 10.600883 3.182708
32.321903 92.631613 12.223072 3.087026
34.303327 92.631613 12.581314 1.314218
36.284751 92.631613 11.056875 3.474597
38.266175 92.631613 11.260010 3.637302
40.247599 92.631613 11.878470 -0.700187
42.229023 92.631613 11.350023 -1.863254
44.210447 92.631613 12.051686 -0.994969
46.191871 92.631613 11.662914 0.919305
48.173295 92.631613 10.953792 1.328075
50.154719 92.631613 11.520621 0.025746
52.136143 92.631613 11.708699 0.529667
54.117567 92.631613 10.644325 -2.086427
56.098991 92.631613 10.547915 -1.103741
58.080415 92.631613 10.410799 2.827005
60.061839 92.631613 10.188866 1.250581
62.043263 92.631613 10.205636 0.739456
64.024687 92.631613 10.492486 0.563169
66.006110 92.631613 9.532613 -3.426647
67.987534 92.631613 0.000000 0.000000
-132.136287 90.650189 7.621567 5.881867
-130.154863 90.650189 5.151269 2.959220
-128.173439 90.650189 8.746763 5.574192
-126.192015 90.650189 10.387591 4.061445
-124.210591 90.650189 10.671528 6.265069
-122.229167 90.650189 9.700219 -5.011771
-120.247743 90.650189 9.378746 3.171528
-118.266319 90.650189 10.395918 5.529884
-116.284895 90.650189 9.808538 -1.682164
-114.303471 90.650189 9.327194 -0.721878
-112.322047 90.650189 0.000000 0.000000
-110.340623 90.650189 0.000000 0.000000
-108.359199 90.650189 0.000000 0.000000
-106.377775 90.650189 0.000000 0.000000
-104.396351 90.650189 0.000000 0.000000
-102.414927 90.650189 0.000000 0.000000
-100.433503 90.650189 0.000000 0.000000
-98.452079 90.650189 0.000000 0.000000
-96.470655 90.650189 0.000000 0.000000
-94.489231 90.650189 0.000000 0.000000
-92.507807 90.650189 0.000000 0.000000
-90.526383 90.650189 0.000000 0.000000
-88.544959 90.650189 10.717273 0.532620
-86.563536 90.650189 10.548820 1.507767
-84.582112 90.650189 9.150317 1.500996
-82.600688 90.650189 9.475412 2.513976
-80.619264 90.650189 10.226796 1.893685
-78.637840 90.650189 10.733000 0.495142
-76.656416 90.650189 12.129516 0.421604
-74.674992 90.650189 11.636224 4.267966
-72.693568 90.650189 10.602950 1.350318
-70.712144 90.650189 11.041167 -1.425844
-68.730720 90.650189 11.062072 4.006685
-66.749296 90.650189 11.855165 2.646801
-64.767872 90.650189 12.081960 -2.291610
-62.786448 90.650189 9.953094 0.026258
-60.805024 90.650189 10.140779 0.499827
-58.823600 90.650189 11.231154 -1.065574
-56.842176 90.650189 11.244873 -0.853010
-54.860752 90.650189 12.008717 -0.713237
-52.879328 90.650189 11.030243 1.126593
-50.897904 90.650189 10.255928 1.519951
-48.916480 90.650189 11.368979 -0.482308
-46.935056 90.650189 10.906117 0.142825
-44.953632 90.650189 10.341689 2.405125
-42.972208 90.650189 10.020787 -0.454810
-40.990784 90.650189 9.921365 3.904724
-39.009360 90.650189 8.818372 0.051788
-37.027936 90.650189 10.024487 2.541316
-35.046512 90.650189 10.909307 2.838067
-33.065088 90.650189 10.922238 1.802195
-31.083664 90.650189 11.568571 -3.420112
-29.102240 90.650189 11.711691 -0.505909
-27.120816 90.650189 11.477259 1.383347
-25.139392 90.650189 11.539203 1.796330
-23.157968 90.650189 11.071224 1.395767
-21.176544 90.650189 10.571102 2.016412
-19.195120 90.650189 10.526341 0.475242
-17.213696 90.650189 10.631925 1.935828
-15.232272 90.650189 0.000000 0.000000
-13.250848 90.650189 0.000000 0.000000
-11.269424 90.650189 0.000000 0.000000
-9.288001 90.650189 0.000000 0.000000
-7.306577 90.650189 0.000000 0.000000
-5.325153 90.650189 11.912011 0.958456
-3.343729 90.650189 12.440753 1.548119
-1.362305 90.650189 11.683169 1.867033
0.619119 90.650189 11.644708 3.743219
2.600543 90.650189 12.878026 1.640573
4.581967 90.650189 12.367846 -1.674940
6.563391 90.650189 9.903847 -1.342366
8.544815 90.650189 9.994943 0.394283
10.526239 90.650189 10.734083 3.919034
12.507663 90.650189 10.718828 3.372557
14.489087 90.650189 10.615726 1.435450
16.470511 90.650189 10.779631 -0.869250
18.451935 90.650189 11.423483 1.190250
20.433359 90.650189 12.315979 2.221122
22.414783 90.650189 11.259813 4.229602
24.396207 90.650189 11.147163 3.192786
26.377631 90.650189 12.075484 -0.753628
28.359055 90.650189 13.123934 -0.606886
30.340479 90.650189 12.055407 0.625349
32.321903 90.650189 11.844673 0.222976
34.303327 90.650189 12.832635 0.535061
36.284751 90.650189 11.567193 3.475915
38.266175 90.650189 11.509933 1.335654
40.247599 90.650189 12.679871 -1.700490
42.229023 90.650189 12.765652 0.768410
44.210447 90.650189 12.647372 0.634207
46.191871 90.650189 11.657738 -0.499433
48.173295 90.650189 11.313195 -0.121251
50.154719 90.650189 11.801606 0.807837
52.136143 90.650189 12.401347 0.592753
54.117567 90.650189 12.361940 -0.547481
56.098991 90.650189 10.001339 -1.246428
58.080415 90.650189 10.310196 -3.751841
60.061839 90.650189 10.584684 0.401664
62.043263 90.650189 10.665839 1.517983
64.024687 90.650189 10.740342 0.682885
66.006110 90.650189 9.968448 0.218311
67.987534 90.650189 0.000000 0.000000
-132.136287 88.668765 85.349472 88.114456
-130.154863 88.668765 10.022047 4.033868
-128.173439 88.668765 7.338733 4.697522
-126.192015 88.668765 8.741940 -2.173114
-124.210591 88.668765 9.444351 7.544958
-122.229167 88.668765 8.412121 -4.670024
-120.247743 88.668765 9.745354 -4.259068
-118.266319 88.668765 9.489171 1.349767
-116.284895 88.668765 9.354535 3.625885
-114.303471 88.668765 10.775851 2.644616
-112.322047 88.668765 0.000000 0.000000
-110.340623 88.668765 0.000000 0.000000
-108.359199 88.668765 0.000000 0.000000
-106.377775 88.668765 0.000000 0.000000
-104.396351 88.668765 0.000000 0.000000
-102.414927 88.668765 0.000000 0.000000
-100.433503 88.668765 0.000000 0.000000
-98.452079 88.668765 0.000000 0.000000
-96.470655 88.668765 0.000000 0.000000
-94.489231 88.668765 0.000000 0.000000
-92.507807 88.668765 0.000000 0.000000
-90.526383 88.668765 0.000000 0.000000
-88.544959 88.668765 9.817573 0.675720
-86.563536 88.668765 9.631917 0.574644
-84.582112 88.668765 11.273277 0.848326
-82.600688 88.668765 11.052958 3.759025
-80.619264 88.668765 10.989104 4.373942
-78.637840 88.668765 11.787236 0.508055
-76.656416 88.668765 10.696782 2.091761
-74.674992 88.668765 9.642270 1.290932
-72.693568 88.668765 10.218273 -0.958790
-70.712144 88.668765 10.346906 -1.795463
-68.730720 88.668765 10.563524 2.768269
-66.749296 88.668765 11.474818 2.733330
-64.767872 88.668765 11.713305 -1.185802
-62.786448 88.668765 10.722902 0.600469
-60.805024 88.668765 10.727784 1.847507
-58.823600 88.668765 10.627024 -1.816623
-56.842176 88.668765 10.504434 2.826847
-54.860752 88.668765 11.930002 1.251821
-52.879328 88.668765 11.667442 0.767544
-50.897904 88.668765 10.519885 2.917254
-48.916480 88.668765 11.296504 1.241920
-46.935056 88.668765 11.442163 -0.377513
-44.953632 88.668765 10.795437 1.212021
-42.972208 88.668765 10.395111 -0.015058
-40.990784 88.668765 10.084522 -0.379619
-39.009360 88.668765 9.514642 -1.743361
-37.027936 88.668765 10.378182 1.871974
-35.046512 88.668765 10.553407 -0.522640
-33.065088 88.668765 10.950623 -1.129113
-31.083664 88.668765 13.309432 -3.328249
-29.102240 88.668765 13.264140 -3.509948
-27.120816 88.668765 11.269635 -1.843492
-25.139392 88.668765 9.910578 0.589761
-23.157968 88.668765 8.262407 4.846350
-21.176544 88.668765 9.732067 3.919270
-19.195120 88.668765 10.851259 0.049248
-17.213696 88.668765 11.273670 -3.670764
-15.232272 88.668765 0.000000 0.000000
-13.250848 88.668765 0.000000 0.000000
-11.269424 88.668765 0.000000 0.000000
-9.288001 88.668765 0.000000 0.000000
-7.306577 88.668765 0.000000 0.000000
-5.325153 88.668765 11.359944 2.245117
-3.343729 88.668765 10.966980 2.524428
-1.362305 88.668765 11.746196 1.484915
0.619119 88.668765 12.591353 3.051910
2.600543 88.668765 12.678611 0.179574
4.581967 88.668765 12.804232 -2.519625
6.563391 88.668765 11.209167 1.336539
8.544815 88.668765 10.770596 0.665898
10.526239 88.668765 11.976160 2.875997
12.507663 88.668765 11.754444 2.497520
14.489087 88.668765 11.007843 1.970077
16.470511 88.668765 10.414696 -1.257608
18.451935 88.668765 10.517051 1.987891
20.433359 88.668765 12.780335 0.650722
22.414783 88.668765 13.265321 2.480041
24.396207 88.668765 12.981247 0.196679
26.377631 88.668765 11.721848 -0.883166
28.359055 88.668765 11.471905 -0.174810
30.340479 88.668765 11.354452 -1.917502
32.321903 88.668765 10.974125 -2.039442
34.303327 88.668765 12.313774 0.087809
36.284751 88.668765 12.077334 2.129042
38.266175 88.668765 11.095160 -0.614484
40.247599 88.668765 10.819215 -3.838469
42.229023 88.668765 11.485112 -2.281748
44.210447 88.668765 11.859200 -2.883162
46.191871 88.668765 11.018964 1.736157
48.173295 88.668765 11.341737 3.902677
50.154719 88.668765 10.327065 -2.180220
52.136143 88.668765 10.935132 -2.093946
54.117567 88.668765 11.596325 -3.032561
56.098991 88.668765 10.656923 -2.362707
58.080415 88.668765 11.143720 -2.709041
60.061839 88.668765 12.227146 -2.244073
62.043263 88.668765 11.903744 1.436001
64.024687 88.668765 10.828191 0.135561
66.006110 88.668765 10.477546 -0.936135
67.987534 88.668765 0.000000 0.000000
-132.136287 86.687341 111.841492 -14.459331
-130.154863 86.687341 11.256783 -3.242231
-128.173439 86.687341 7.886056 -3.343346
-126.192015 86.687341 7.627590 -3.794043
-124.210591 86.687341 7.648337 -2.414691
-122.229167 86.687341 8.909941 3.647675
-120.247743 86.687341 10.431880 3.048702
-118.266319 86.687341 8.700762 0.717764
-116.284895 86.687341 9.130515 2.814702
-114.303471 86.687341 10.627259 7.066567
-112.322047 86.687341 0.000000 0.000000
-110.340623 86.687341 0.000000 0.000000
-108.359199 86.687341 0.000000 0.000000
-106.377775 86.687341 0.000000 0.000000
-104.396351 86.687341 0.000000 0.000000
-102.414927 86.687341 0.000000 0.000000
-100.433503 86.687341 0.000000 0.000000
-98.452079 86.687341 0.000000 0.000000
-96.470655 86.687341 0.000000 0.000000
-94.489231 86.687341 0.000000 0.000000
-92.507807 86.687341 0.000000 0.000000
-90.526383 86.687341 0.000000 0.000000
-88.544959 86.687341 10.109166 0.992587
-86.563536 86.687341 10.185421 -1.061204
-84.582112 86.687341 10.496599 3.483966
-82.600688 86.687341 11.174386 1.009003
-80.619264 86.687341 11.444860 -0.931647
-78.637840 86.687341 11.415058 0.941922
-76.656416 86.687341 8.883427 2.891370
-74.674992 86.687341 7.868793 1.321265
-72.693568 86.687341 10.059012 -1.986316
-70.712144 86.687341 11.202160 -1.189168
-68.730720 86.687341 10.917200 2.163410
-66.749296 86.687341 9.276883 1.766627
-64.767872 86.687341 10.238626 -1.084530
-62.786448 86.687341 11.598549 0.348007
-60.805024 86.687341 11.199679 3.070531
-58.823600 86.687341 10.799727 -0.005610
-56.842176 86.687341 10.199377 0.429477
-54.860752 86.687341 11.036285 2.709474
-52.879328 86.687341 11.459563 1.215859
-50.897904 86.687341 10.692747 2.700498
-48.916480 86.687341 9.992679 1.402480
-46.935056 86.687341 11.365987 -1.991375
-44.953632 86.687341 12.153864 -0.331020
-42.972208 86.687341 11.131102 2.250726
-40.990784 86.687341 10.871908 1.776981
-39.009360 86.687341 10.972236 4.168701
-37.027936 86.687341 11.025794 2.497422
-35.046512 86.687341 12.103632 -2.115027
-33.065088 86.687341 12.109301 -2.171756
-31.083664 86.687341 13.993911 -1.292113
-29.102240 86.687341 13.011245 -1.389764
-27.120816 86.687341 11.496765 -0.663752
-25.139392 86.687341 10.703120 -0.150186
-23.157968 86.687341 10.517740 0.885646
-21.176544 86.687341 11.969094 0.937178
-19.195120 86.687341 11.141023 -1.053390
-17.213696 86.687341 11.578846 -0.429911
-15.232272 86.687341 0.000000 0.000000
-13.250848 86.687341 0.000000 0.000000
-11.269424 86.687341 0.000000 0.000000
-9.288001 86.687341 0.000000 0.000000
-7.306577 86.687341 0.000000 0.000000
-5.325153 86.687341 10.584842 -0.284507
-3.343729 86.687341 9.918845 0.125798
-1.362305 86.687341 11.685532 0.837441
0.619119 86.687341 11.938722 0.909857
2.600543 86.687341 12.071823 -1.102560
4.581967 86.687341 12.509665 -1.720233
6.563391 86.687341 11.503575 0.567224
8.544815 86.687341 10.580728 0.600706
10.526239 86.687341 12.146876 2.244152
12.507663 86.687341 11.710135 2.504606
14.489087 86.687341 11.875538 2.069716
16.470511 86.687341 12.337985 0.826398
18.451935 86.687341 10.976231 -1.360219
20.433359 86.687341 11.998088 -0.251833
22.414783 86.687341 13.175288 1.784992
24.396207 86.687341 12.545529 -0.474238
26.377631 86.687341 10.854704 -1.791094
28.359055 86.687341 10.322144 1.296385
30.340479 86.687341 10.495990 -1.053607
32.321903 86.687341 10.996112 -0.313797
34.303327 86.687341 10.847815 -0.021435
36.284751 86.687341 12.296079 -1.409349
38.266175 86.687341 11.495879 -2.510236
40.247599 86.687341 11.051068 -1.787570
42.229023 86.687341 10.599466 -0.957787
44.210447 86.687341 11.484857 -2.717839
46.191871 86.687341 11.029692 1.506960
48.173295 86.687341 11.085436 3.118953
50.154719 86.687341 9.818301 -1.978895
52.136143 86.687341 10.193393 -2.200120
54.117567 86.687341 10.693790 -1.274378
56.098991 86.687341 11.414822 1.726866
58.080415 86.687341 11.484404 1.605477
60.061839 86.687341 12.197129 -3.737728
62.043263 86.687341 12.249290 -1.996040
64.024687 86.687341 11.798574 -0.932847
66.006110 86.687341 10.376156 -0.268859
67.987534 86.687341 0.000000 0.000000
-132.136287 84.705917 57.468964 126.967430
-130.154863 84.705917 9.352586 6.029258
-128.173439 84.705917 10.793587 7.701640
-126.192015 84.705917 10.308326 5.218233
-124.210591 84.705917 7.811042 0.097828
-122.229167 84.705917 8.990407 -0.166268
-120.247743 84.705917 9.041742 1.372403
-118.266319 84.705917 11.208912 4.020444
-116.284895 84.705917 11.967755 4.602627
-114.303471 84.705917 9.230528 1.738145
-112.322047 84.705917 0.000000 0.000000
-110.340623 84.705917 0.000000 0.000000
-108.359199 84.705917 0.000000 0.000000
-106.377775 84.705917 0.000000 0.000000
-104.396351 84.705917 0.000000 0.000000
-102.414927 84.705917 0.000000 0.000000
-100.433503 84.705917 0.000000 0.000000
-98.452079 84.705917 0.000000 0.000000
-96.470655 84.705917 0.000000 0.000000
-94.489231 84.705917 0.000000 0.000000