TITLE = "B00018"
VARIABLES = "position", "position(2)", "Vx", "Vy"
ZONE T="Frame 0", I=102, J=78
-132.136287 98.575885 0.000000 0.000000
-130.154863 98.575885 11.377718 -7.452012
-128.173439 98.575885 15.353303 -1.372029
-126.192015 98.575885 12.395875 3.249711
-124.210591 98.575885 10.013149 3.422907
-122.229167 98.575885 10.868995 7.727524
-120.247743 98.575885 11.271407 4.713151
-118.266319 98.575885 12.186973 1.486942
-116.284895 98.575885 11.350456 -0.760241
-114.303471 98.575885 0.000000 0.000000
-112.322047 98.575885 0.000000 0.000000
-110.340623 98.575885 0.000000 0.000000
-108.359199 98.575885 0.000000 0.000000
-106.377775 98.575885 0.000000 0.000000
-104.396351 98.575885 0.000000 0.000000
-102.414927 98.575885 0.000000 0.000000
-100.433503 98.575885 0.000000 0.000000
-98.452079 98.575885 0.000000 0.000000
-96.470655 98.575885 0.000000 0.000000
-94.489231 98.575885 0.000000 0.000000
-92.507807 98.575885 0.000000 0.000000
-90.526383 98.575885 0.000000 0.000000
-88.544959 98.575885 0.000000 0.000000
-86.563536 98.575885 9.939552 -1.948563
-84.582112 98.575885 9.696262 0.967235
-82.600688 98.575885 11.047978 2.900385
-80.619264 98.575885 10.473117 4.765804
-78.637840 98.575885 10.185480 2.642372
-76.656416 98.575885 11.202239 1.643525
-74.674992 98.575885 11.333312 0.792267
-72.693568 98.575885 11.999387 1.021621
-70.712144 98.575885 11.139093 3.098048
-68.730720 98.575885 12.118040 1.171079
-66.749296 98.575885 13.343288 1.401633
-64.767872 98.575885 10.127748 4.224819
-62.786448 98.575885 7.861865 6.792334
-60.805024 98.575885 10.703179 3.099781
-58.823600 98.575885 11.157380 -3.477687
-56.842176 98.575885 10.213628 -2.251101
-54.860752 98.575885 11.549970 -1.723185
-52.879328 98.575885 10.988829 -1.109095
-50.897904 98.575885 10.708455 0.593856
-48.916480 98.575885 11.250149 0.635172
-46.935056 98.575885 12.017850 1.766706
-44.953632 98.575885 13.021696 4.623472
-42.972208 98.575885 11.329808 1.966888
-40.990784 98.575885 12.213171 -0.303443
-39.009360 98.575885 13.387911 3.812151
-37.027936 98.575885 12.411798 2.124712
-35.046512 98.575885 11.408504 2.148293
-33.065088 98.575885 10.825080 1.271308
-31.083664 98.575885 10.650526 -0.958928
-29.102240 98.575885 11.879297 -0.832067
-27.120816 98.575885 11.266151 0.287243
-25.139392 98.575885 12.325013 2.650226
-23.157968 98.575885 13.227686 2.458802
-21.176544 98.575885 10.924247 -0.797503
-19.195120 98.575885 11.507177 -0.947256
-17.213696 98.575885 0.000000 0.000000
-15.232272 98.575885 0.000000 0.000000
-13.250848 98.575885 0.000000 0.000000
-11.269424 98.575885 0.000000 0.000000
-9.288001 98.575885 0.000000 0.000000
-7.306577 98.575885 0.000000 0.000000
-5.325153 98.575885 11.401437 0.658930
-3.343729 98.575885 10.597261 1.179464
-1.362305 98.575885 10.916451 2.949201
0.619119 98.575885 11.731709 0.348932
2.600543 98.575885 12.282772 0.431643
4.581967 98.575885 12.295960 1.165311
6.563391 98.575885 11.030145 -0.766954
8.544815 98.575885 11.023668 2.699297
10.526239 98.575885 10.866771 3.159619
12.507663 98.575885 9.282413 -0.336039
14.489087 98.575885 11.937128 1.420116
16.470511 98.575885 13.472530 1.553807
18.451935 98.575885 11.779521 0.271280
20.433359 98.575885 10.086019 0.586415
22.414783 98.575885 8.848153 -0.948594
24.396207 98.575885 10.258270 3.125488
26.377631 98.575885 12.494391 2.685046
28.359055 98.575885 11.481156 1.805975
30.340479 98.575885 11.372482 -1.277902
32.321903 98.575885 12.012812 -3.272721
34.303327 98.575885 10.932258 -1.983993
36.284751 98.575885 9.710730 -0.349601
38.266175 98.575885 11.052505 -0.165599
40.247599 98.575885 11.757613 -0.002638
42.229023 98.575885 11.242531 -3.779772
44.210447 98.575885 10.457745 4.182479
46.191871 98.575885 10.939639 1.867761
48.173295 98.575885 11.809637 -1.728047
50.154719 98.575885 10.562618 -0.036021
52.136143 98.575885 9.810802 3.151903
54.117567 98.575885 10.589565 2.616449
56.098991 98.575885 10.814963 -0.161996
58.080415 98.575885 10.070468 1.078191
60.061839 98.575885 10.198530 -5.012775
62.043263 98.575885 11.389804 0.883245
64.024687 98.575885 10.714951 -1.055260
66.006110 98.575885 10.612792 -3.216879
67.987534 98.575885 0.000000 0.000000
-132.136287 96.594461 9.026586 0.297026
-130.154863 96.594461 10.333619 -5.524077
-128.173439 96.594461 -157.881134 125.315483
-126.192015 96.594461 12.586432 0.280216
-124.210591 96.594461 9.824462 -1.207336
-122.229167 96.594461 8.949800 1.441768
-120.247743 96.594461 10.359818 3.632204
-118.266319 96.594461 10.404894 2.987466
-116.284895 96.594461 11.153443 2.967979
-114.303471 96.594461 10.985010 2.111780
-112.322047 96.594461 0.000000 0.000000
-110.340623 96.594461 0.000000 0.000000
-108.359199 96.594461 0.000000 0.000000
-106.377775 96.594461 0.000000 0.000000
-104.396351 96.594461 0.000000 0.000000
-102.414927 96.594461 0.000000 0.000000
-100.433503 96.594461 0.000000 0.000000
-98.452079 96.594461 0.000000 0.000000
-96.470655 96.594461 0.000000 0.000000
-94.489231 96.594461 0.000000 0.000000
-92.507807 96.594461 0.000000 0.000000
-90.526383 96.594461 0.000000 0.000000
-88.544959 96.594461 0.000000 0.000000
-86.563536 96.594461 10.805889 -1.853333
-84.582112 96.594461 11.489364 1.411475
-82.600688 96.594461 11.153601 2.511830
-80.619264 96.594461 10.540159 2.710163
-78.637840 96.594461 9.819443 -0.864092
-76.656416 96.594461 11.193361 1.295440
-74.674992 96.594461 11.120591 -0.082553
-72.693568 96.594461 11.321324 0.036533
-70.712144 96.594461 11.451237 2.052532
-68.730720 96.594461 11.124075 1.877938
-66.749296 96.594461 11.696299 3.769340
-64.767872 96.594461 11.063449 3.671965
-62.786448 96.594461 8.744932 3.307857
-60.805024 96.594461 9.856074 2.631428
-58.823600 96.594461 11.729012 -0.197939
-56.842176 96.594461 10.616788 4.184507
-54.860752 96.594461 10.296495 4.108056
-52.879328 96.594461 9.654454 -2.485553
-50.897904 96.594461 9.657663 -2.569838
-48.916480 96.594461 10.741602 -2.516082
-46.935056 96.594461 11.433699 1.003295
-44.953632 96.594461 12.395067 4.471692
-42.972208 96.594461 12.644617 3.222115
-40.990784 96.594461 12.832616 -0.398594
-39.009360 96.594461 13.327009 -0.055705
-37.027936 96.594461 11.895398 1.478163
-35.046512 96.594461 9.636936 5.225949
-33.065088 96.594461 10.658478 5.305077
-31.083664 96.594461 11.599671 -0.825926
-29.102240 96.594461 12.619087 -3.117279
-27.120816 96.594461 11.791941 -1.294790
-25.139392 96.594461 11.385848 1.866915
-23.157968 96.594461 11.416298 -0.226480
-21.176544 96.594461 11.149920 -4.443052
-19.195120 96.594461 11.735075 -0.458157
-17.213696 96.594461 11.737929 4.359003
-15.232272 96.594461 0.000000 0.000000
-13.250848 96.594461 0.000000 0.000000
-11.269424 96.594461 0.000000 0.000000
-9.288001 96.594461 0.000000 0.000000
-7.306577 96.594461 0.000000 0.000000
-5.325153 96.594461 11.687263 2.881174
-3.343729 96.594461 11.667718 4.455374
-1.362305 96.594461 11.463362 4.527494
0.619119 96.594461 10.904032 -0.480419
2.600543 96.594461 11.489404 -2.603615
4.581967 96.594461 11.394371 -1.839555
6.563391 96.594461 10.324388 -2.026687
8.544815 96.594461 11.179819 1.690786
10.526239 96.594461 11.000954 2.173429
12.507663 96.594461 11.382816 0.085014
14.489087 96.594461 13.194736 0.259096
16.470511 96.594461 13.234477 0.348578
18.451935 96.594461 10.767387 -0.607280
20.433359 96.594461 10.145561 -0.083636
22.414783 96.594461 10.668005 0.883126
24.396207 96.594461 10.673182 1.866088
26.377631 96.594461 11.617702 2.603398
28.359055 96.594461 11.035144 2.612335
30.340479 96.594461 11.972066 0.123357
32.321903 96.594461 11.857862 -1.761490
34.303327 96.594461 11.148935 1.206332
36.284751 96.594461 11.593254 0.562559
38.266175 96.594461 10.838505 -0.978710
40.247599 96.594461 10.173650 -2.289858
42.229023 96.594461 10.539589 -2.877040
44.210447 96.594461 9.539817 0.218961
46.191871 96.594461 10.092710 0.880449
48.173295 96.594461 11.243082 0.240436
50.154719 96.594461 10.192507 -0.002126
52.136143 96.594461 10.015197 -2.067255
54.117567 96.594461 11.131928 1.590616
56.098991 96.594461 11.228300 -1.439308
58.080415 96.594461 10.972610 -1.547331
60.061839 96.594461 10.637987 -2.774115
62.043263 96.594461 10.500064 -0.115897
64.024687 96.594461 9.937053 1.207670
66.006110 96.594461 10.555788 -0.197821
67.987534 96.594461 0.000000 0.000000
-132.136287 94.613037 5.512779 -66.195709
-130.154863 94.613037 13.178123 -2.391484
-128.173439 94.613037 14.428644 2.663571
-126.192015 94.613037 12.399122 2.385697
-124.210591 94.613037 8.549395 2.493938
-122.229167 94.613037 8.616929 -2.167996
-120.247743 94.613037 9.924613 -2.696148
-118.266319 94.613037 10.603915 -0.821615
-116.284895 94.613037 11.655868 1.893370
-114.303471 94.613037 11.913685 2.991265
-112.322047 94.613037 0.000000 0.000000
-110.340623 94.613037 0.000000 0.000000
-108.359199 94.613037 0.000000 0.000000
-106.377775 94.613037 0.000000 0.000000
-104.396351 94.613037 0.000000 0.000000
-102.414927 94.613037 0.000000 0.000000
-100.433503 94.613037 0.000000 0.000000
-98.452079 94.613037 0.000000 0.000000
-96.470655 94.613037 0.000000 0.000000
-94.489231 94.613037 0.000000 0.000000
-92.507807 94.613037 0.000000 0.000000
-90.526383 94.613037 0.000000 0.000000
-88.544959 94.613037 0.000000 0.000000
-86.563536 94.613037 10.524078 2.232401
-84.582112 94.613037 11.372423 2.214036
-82.600688 94.613037 10.870471 0.423651
-80.619264 94.613037 10.373302 -0.647257
-78.637840 94.613037 10.397689 -1.878942
-76.656416 94.613037 11.321640 1.242648
-74.674992 94.613037 10.544923 1.069432
-72.693568 94.613037 9.306389 0.880509
-70.712144 94.613037 11.391596 0.680838
-68.730720 94.613037 11.778202 4.111264
-66.749296 94.613037 10.927651 5.503134
-64.767872 94.613037 11.429742 2.671012
-62.786448 94.613037 10.037105 -0.471246
-60.805024 94.613037 9.427522 1.630829
-58.823600 94.613037 10.047359 1.034376
-56.842176 94.613037 10.786559 3.968479
-54.860752 94.613037 11.438088 -1.953956
-52.879328 94.613037 10.235536 1.555618
-50.897904 94.613037 9.382072 -0.664579
-48.916480 94.613037 10.818014 2.977998
-46.935056 94.613037 11.194877 3.279571
-44.953632 94.613037 11.009811 2.871943
-42.972208 94.613037 12.363554 2.391288
-40.990784 94.613037 12.272104 0.206127
-39.009360 94.613037 11.177299 -1.072660
-37.027936 94.613037 11.303216 1.901342
-35.046512 94.613037 9.836351 4.054910
-33.065088 94.613037 11.112914 4.230488
-31.083664 94.613037 12.576138 -0.028089
-29.102240 94.613037 12.767757 -3.148380
-27.120816 94.613037 12.053418 1.177909
-25.139392 94.613037 11.019535 3.771426
-23.157968 94.613037 10.985188 2.816454
-21.176544 94.613037 13.267565 -1.018373
-19.195120 94.613037 13.068819 1.767769
-17.213696 94.613037 12.663828 3.347834
-15.232272 94.613037 0.000000 0.000000
-13.250848 94.613037 0.000000 0.000000
-11.269424 94.613037 0.000000 0.000000
-9.288001 94.613037 0.000000 0.000000
-7.306577 94.613037 0.000000 0.000000
-5.325153 94.613037 12.146325 4.886918
-3.343729 94.613037 10.369818 5.055429
-1.362305 94.613037 11.391615 1.862368
0.619119 94.613037 11.530581 -1.209855
2.600543 94.613037 10.768647 -2.030841
4.581967 94.613037 11.351913 -3.362203
6.563391 94.613037 10.864192 -1.698344
8.544815 94.613037 11.657286 -0.457428
10.526239 94.613037 10.956981 1.084825
12.507663 94.613037 12.421109 -0.875844
14.489087 94.613037 13.405410 1.810029
16.470511 94.613037 12.027102 1.114409
18.451935 94.613037 10.105407 -0.058441
20.433359 94.613037 10.653321 -0.597103
22.414783 94.613037 11.789363 -0.617633
24.396207 94.613037 11.343803 0.175696
26.377631 94.613037 10.538329 -3.590474
28.359055 94.613037 10.438474 -0.937394
30.340479 94.613037 11.857743 1.054827
32.321903 94.613037 12.096624 -0.123554
34.303327 94.613037 11.316187 -0.103871
36.284751 94.613037 10.319644 -1.867702
38.266175 94.613037 10.376018 0.073361
40.247599 94.613037 11.151829 -1.795483
42.229023 94.613037 11.126397 -1.996414
44.210447 94.613037 10.049584 -0.341236
46.191871 94.613037 10.470440 2.116858
48.173295 94.613037 10.141802 2.384300
50.154719 94.613037 9.510409 -0.951232
52.136143 94.613037 10.888777 2.493012
54.117567 94.613037 11.199246 2.480435
56.098991 94.613037 10.347890 2.212993
58.080415 94.613037 10.178689 2.460160
60.061839 94.613037 10.769750 -3.034510
62.043263 94.613037 9.459271 2.838520
64.024687 94.613037 9.505075 1.610949
66.006110 94.613037 10.965189 -1.084116
67.987534 94.613037 0.000000 0.000000
-132.136287 92.631613 79.261635 34.868950
-130.154863 92.631613 12.520885 -4.258655
-128.173439 92.631613 12.426325 -0.114933
-126.192015 92.631613 13.019394 3.257407
-124.210591 92.631613 10.287933 -2.946819
-122.229167 92.631613 10.854468 2.932844
-120.247743 92.631613 10.463748 -3.785362
-118.266319 92.631613 11.187102 -5.158395
-116.284895 92.631613 12.209254 -2.047119
-114.303471 92.631613 12.418097 -2.865348
-112.322047 92.631613 0.000000 0.000000
-110.340623 92.631613 0.000000 0.000000
-108.359199 92.631613 0.000000 0.000000
-106.377775 92.631613 0.000000 0.000000
-104.396351 92.631613 0.000000 0.000000
-102.414927 92.631613 0.000000 0.000000
-100.433503 92.631613 0.000000 0.000000
-98.452079 92.631613 0.000000 0.000000
-96.470655 92.631613 0.000000 0.000000
-94.489231 92.631613 0.000000 0.000000
-92.507807 92.631613 0.000000 0.000000
-90.526383 92.631613 0.000000 0.000000
-88.544959 92.631613 11.286997 1.349727
-86.563536 92.631613 10.072791 -0.226854
-84.582112 92.631613 11.234835 1.479364
-82.600688 92.631613 12.017673 -1.733696
-80.619264 92.631613 11.760821 0.999103
-78.637840 92.631613 11.765545 1.819044
-76.656416 92.631613 10.611197 2.146895
-74.674992 92.631613 10.665918 1.595379
-72.693568 92.631613 10.898540 -2.159198
-70.712144 92.631613 12.729749 -1.161709
-68.730720 92.631613 10.553820 3.700742
-66.749296 92.631613 10.608600 3.023861
-64.767872 92.631613 12.150617 2.301963
-62.786448 92.631613 11.165903 2.635483
-60.805024 92.631613 10.647494 4.599871
-58.823600 92.631613 11.202101 1.302939
-56.842176 92.631613 10.873975 -1.460920
-54.860752 92.631613 12.173981 -1.440154
-52.879328 92.631613 11.030991 1.178834
-50.897904 92.631613 10.838544 2.029758
-48.916480 92.631613 11.467988 0.859841
-46.935056 92.631613 11.369038 -0.363872
-44.953632 92.631613 11.390020 -2.037159
-42.972208 92.631613 11.789421 2.064854
-40.990784 92.631613 11.326580 1.618193
-39.009360 92.631613 10.655742 -1.421179
-37.027936 92.631613 11.747672 -0.849782
-35.046512 92.631613 10.288130 0.595293
-33.065088 92.631613 11.096577 1.088171
-31.083664 92.631613 12.192779 1.120059
-29.102240 92.631613 12.565371 -0.192585
-27.120816 92.631613 13.466823 0.480714
-25.139392 92.631613 12.354302 0.000118
-23.157968 92.631613 11.723009 2.495532
-21.176544 92.631613 12.963571 0.942335
-19.195120 92.631613 12.094105 0.569684
-17.213696 92.631613 12.539330 2.184274
-15.232272 92.631613 0.000000 0.000000
-13.250848 92.631613 0.000000 0.000000
-11.269424 92.631613 0.000000 0.000000
-9.288001 92.631613 0.000000 0.000000
-7.306577 92.631613 0.000000 0.000000
-5.325153 92.631613 12.062827 -0.665071
-3.343729 92.631613 10.418338 1.001445
-1.362305 92.631613 11.067740 2.437780
0.619119 92.631613 12.030644 0.413967
2.600543 92.631613 11.143404 -0.770910
4.581967 92.631613 11.829773 0.528959
6.563391 92.631613 12.334187 0.370427
8.544815 92.631613 12.536790 -1.556386
10.526239 92.631613 12.203900 -1.748380
12.507663 92.631613 12.564425 -1.823296
14.489087 92.631613 12.742012 1.469128
16.470511 92.631613 11.556859 0.086234
18.451935 92.631613 10.525180 -0.879367
20.433359 92.631613 10.484061 0.218488
22.414783 92.631613 11.686949 0.119460
24.396207 92.631613 10.814864 0.057417
26.377631 92.631613 10.685700 2.387804
28.359055 92.631613 10.941726 2.376131
30.340479 92.631613 11.210053 0.782622
32.321903 92.631613 12.887533 -0.749081
34.303327 92.631613 11.773518 -3.758415
36.284751 92.631613 10.290276 -3.461802
38.266175 92.631613 10.507603 0.726956
40.247599 92.631613 11.624197 -1.641518
42.229023 92.631613 11.118386 -3.199656
44.210447 92.631613 10.172765 -0.017400
46.191871 92.631613 11.070417 -0.703159
48.173295 92.631613 8.944407 -0.381863
50.154719 92.631613 8.221230 -1.402066
52.136143 92.631613 9.648333 -2.585289
54.117567 92.631613 9.562355 0.515869
56.098991 92.631613 10.435384 -2.034482
58.080415 92.631613 10.183906 2.454905
60.061839 92.631613 9.935203 3.067184
62.043263 92.631613 10.019822 1.700470
64.024687 92.631613 11.065496 -0.443236
66.006110 92.631613 11.474700 1.129389
67.987534 92.631613 0.000000 0.000000
-132.136287 90.650189 7.121071 -5.706880
-130.154863 90.650189 8.916279 4.507634
-128.173439 90.650189 9.027255 4.248597
-126.192015 90.650189 9.956284 -7.181795
-124.210591 90.650189 10.008111 -4.516019
-122.229167 90.650189 10.439754 -0.539234
-120.247743 90.650189 9.179547 0.335232
-118.266319 90.650189 8.341280 -1.321855
-116.284895 90.650189 9.072370 -3.241601
-114.303471 90.650189 9.677012 0.505417
-112.322047 90.650189 0.000000 0.000000
-110.340623 90.650189 0.000000 0.000000
-108.359199 90.650189 0.000000 0.000000
-106.377775 90.650189 0.000000 0.000000
-104.396351 90.650189 0.000000 0.000000
-102.414927 90.650189 0.000000 0.000000
-100.433503 90.650189 0.000000 0.000000
-98.452079 90.650189 0.000000 0.000000
-96.470655 90.650189 0.000000 0.000000
-94.489231 90.650189 0.000000 0.000000
-92.507807 90.650189 0.000000 0.000000
-90.526383 90.650189 0.000000 0.000000
-88.544959 90.650189 10.753943 -1.149761
-86.563536 90.650189 10.348815 0.937257
-84.582112 90.650189 10.753216 -0.648084
-82.600688 90.650189 10.383025 -1.578707
-80.619264 90.650189 10.090250 0.880627
-78.637840 90.650189 9.806078 2.055465
-76.656416 90.650189 8.001658 3.283665
-74.674992 90.650189 8.554965 2.067590
-72.693568 90.650189 12.003836 -2.048536
-70.712144 90.650189 12.045879 -2.019109
-68.730720 90.650189 8.277977 1.932048
-66.749296 90.650189 9.970495 3.097202
-64.767872 90.650189 11.581444 3.715623
-62.786448 90.650189 12.040723 3.281244
-60.805024 90.650189 12.000312 3.080865
-58.823600 90.650189 10.976802 1.887347
-56.842176 90.650189 10.708317 0.645092
-54.860752 90.650189 11.942364 1.671929
-52.879328 90.650189 10.908578 -1.158087
-50.897904 90.650189 11.648684 -0.515101
-48.916480 90.650189 12.305035 0.605587
-46.935056 90.650189 11.007410 1.327839
-44.953632 90.650189 10.795339 -0.463471
-42.972208 90.650189 10.909878 1.931792
-40.990784 90.650189 10.685661 3.115193
-39.009360 90.650189 10.850472 0.136664
-37.027936 90.650189 12.170477 -2.315919
-35.046512 90.650189 10.222328 -1.218555
-33.065088 90.650189 9.472381 1.620141
-31.083664 90.650189 9.816175 -0.080231
-29.102240 90.650189 10.852224 0.999103
-27.120816 90.650189 11.702341 1.176157
-25.139392 90.650189 11.783536 -0.055744
-23.157968 90.650189 11.780722 0.753923
-21.176544 90.650189 12.648889 0.415738
-19.195120 90.650189 12.175969 -1.900712
-17.213696 90.650189 12.929183 -1.536584
-15.232272 90.650189 0.000000 0.000000
-13.250848 90.650189 0.000000 0.000000
-11.269424 90.650189 0.000000 0.000000
-9.288001 90.650189 0.000000 0.000000
-7.306577 90.650189 0.000000 0.000000
-5.325153 90.650189 11.180941 0.511637
-3.343729 90.650189 10.389717 -0.814273
-1.362305 90.650189 10.621512 3.697612
0.619119 90.650189 11.400512 3.714855
2.600543 90.650189 10.116036 2.235039
4.581967 90.650189 9.946166 3.378796
6.563391 90.650189 11.347937 2.150222
8.544815 90.650189 10.915251 -1.352070
10.526239 90.650189 11.396615 -0.735184
12.507663 90.650189 11.129803 0.990678
14.489087 90.650189 10.810692 1.562685
16.470511 90.650189 10.401390 -0.355270
18.451935 90.650189 10.967432 -1.762395
20.433359 90.650189 10.272325 -1.810895
22.414783 90.650189 12.027869 0.819411
24.396207 90.650189 11.182535 1.269654
26.377631 90.650189 10.149104 0.561476
28.359055 90.650189 11.301877 0.691762
30.340479 90.650189 11.037270 1.170468
32.321903 90.650189 11.319809 0.470833
34.303327 90.650189 11.367128 -2.313517
36.284751 90.650189 11.541152 -0.911176
38.266175 90.650189 10.932120 0.399184
40.247599 90.650189 11.117206 -3.128538
42.229023 90.650189 10.094797 0.165992
44.210447 90.650189 10.272068 1.294672
46.191871 90.650189 11.455784 1.779894
48.173295 90.650189 12.029011 -0.163276
50.154719 90.650189 11.342031 -1.445331
52.136143 90.650189 9.952524 -1.901361
54.117567 90.650189 9.738544 -0.613894
56.098991 90.650189 10.348008 -1.627995
58.080415 90.650189 10.377849 -1.144073
60.061839 90.650189 10.776915 1.012586
62.043263 90.650189 10.913204 -0.984911
64.024687 90.650189 11.662107 -1.274536
66.006110 90.650189 9.586802 0.077829
67.987534 90.650189 0.000000 0.000000
-132.136287 88.668765 -65.124901 189.769623
-130.154863 88.668765 9.441084 5.032537
-128.173439 88.668765 11.983640 6.507197
-126.192015 88.668765 12.197916 0.787031
-124.210591 88.668765 10.081885 -3.576341
-122.229167 88.668765 10.243507 -3.725465
-120.247743 88.668765 10.545789 -1.994918
-118.266319 88.668765 8.525971 -4.911621
-116.284895 88.668765 8.768395 -4.120811
-114.303471 88.668765 10.202763 -0.723276
-112.322047 88.668765 0.000000 0.000000
-110.340623 88.668765 0.000000 0.000000
-108.359199 88.668765 0.000000 0.000000
-106.377775 88.668765 0.000000 0.000000
-104.396351 88.668765 0.000000 0.000000
-102.414927 88.668765 0.000000 0.000000
-100.433503 88.668765 0.000000 0.000000
-98.452079 88.668765 0.000000 0.000000
-96.470655 88.668765 0.000000 0.000000
-94.489231 88.668765 0.000000 0.000000
-92.507807 88.668765 0.000000 0.000000
-90.526383 88.668765 0.000000 0.000000
-88.544959 88.668765 10.829745 -1.069235
-86.563536 88.668765 10.180539 3.487962
-84.582112 88.668765 10.356058 -1.286149
-82.600688 88.668765 10.350389 -1.715784
-80.619264 88.668765 9.511926 1.500740
-78.637840 88.668765 8.554552 2.905503
-76.656416 88.668765 6.896992 3.243688
-74.674992 88.668765 8.274375 -0.617122
-72.693568 88.668765 10.344012 0.854644
-70.712144 88.668765 10.710069 -0.162095
-68.730720 88.668765 9.761061 1.711867
-66.749296 88.668765 9.406992 3.689266
-64.767872 88.668765 10.538388 3.041615
-62.786448 88.668765 11.211805 0.044721
-60.805024 88.668765 11.004418 -1.006740
-58.823600 88.668765 10.491482 1.982753
-56.842176 88.668765 10.072693 1.405609
-54.860752 88.668765 11.872663 2.752305
-52.879328 88.668765 11.669332 0.160441
-50.897904 88.668765 13.970448 -0.954893
-48.916480 88.668765 14.650715 0.169023
-46.935056 88.668765 11.664942 2.699711
-44.953632 88.668765 10.396980 1.881757
-42.972208 88.668765 10.880056 0.564350
-40.990784 88.668765 10.754750 1.844968
-39.009360 88.668765 10.678082 0.838996
-37.027936 88.668765 13.367676 -0.903499
-35.046512 88.668765 11.840244 -0.675661
-33.065088 88.668765 9.633845 0.365821
-31.083664 88.668765 10.340370 -0.467250
-29.102240 88.668765 11.278198 1.483694
-27.120816 88.668765 10.531381 3.768060
-25.139392 88.668765 11.528200 2.046312
-23.157968 88.668765 12.161619 1.565952
-21.176544 88.668765 12.532204 3.011539
-19.195120 88.668765 13.241957 2.106406
-17.213696 88.668765 12.428530 0.781893
-15.232272 88.668765 0.000000 0.000000
-13.250848 88.668765 0.000000 0.000000
-11.269424 88.668765 0.000000 0.000000
-9.288001 88.668765 0.000000 0.000000
-7.306577 88.668765 0.000000 0.000000
-5.325153 88.668765 11.552647 -0.740991
-3.343729 88.668765 10.083636 -0.400306
-1.362305 88.668765 10.768155 2.827123
0.619119 88.668765 10.960799 4.566212
2.600543 88.668765 9.902212 -2.471872
4.581967 88.668765 8.920057 -2.707840
6.563391 88.668765 10.234788 2.656466
8.544815 88.668765 10.365979 3.301440
10.526239 88.668765 10.358106 1.887721
12.507663 88.668765 9.780233 3.566283
14.489087 88.668765 9.882529 2.415420
16.470511 88.668765 10.474358 0.041690
18.451935 88.668765 10.986605 -1.556307
20.433359 88.668765 11.072484 -2.663473
22.414783 88.668765 12.800650 0.008090
24.396207 88.668765 12.407429 1.577821
26.377631 88.668765 10.801046 2.549800
28.359055 88.668765 11.574654 2.678295
30.340479 88.668765 11.525346 -1.954842
32.321903 88.668765 10.985168 -3.285889
34.303327 88.668765 11.441592 -1.142281
36.284751 88.668765 11.077562 -0.833996
38.266175 88.668765 11.168697 -1.624727
40.247599 88.668765 12.023126 -2.722740
42.229023 88.668765 9.782004 -1.027742
44.210447 88.668765 10.834037 2.535765
46.191871 88.668765 11.854988 3.041497
48.173295 88.668765 12.044010 1.634806
50.154719 88.668765 11.569555 1.335437
52.136143 88.668765 10.119579 1.311069
54.117567 88.668765 10.348776 1.597564
56.098991 88.668765 8.857070 -1.308451
58.080415 88.668765 9.134629 0.233665
60.061839 88.668765 10.873109 0.687353
62.043263 88.668765 11.697755 -1.289476
64.024687 88.668765 11.517610 -1.911361
66.006110 88.668765 9.564107 -0.895645
67.987534 88.668765 0.000000 0.000000
-132.136287 86.687341 -4.854598 33.570538
-130.154863 86.687341 16.626598 -4.883414
-128.173439 86.687341 12.183390 1.123247
-126.192015 86.687341 9.967563 1.271229
-124.210591 86.687341 10.859704 2.748920
-122.229167 86.687341 11.036798 1.997811
-120.247743 86.687341 9.696991 -2.367490
-118.266319 86.687341 9.507555 -4.064633
-116.284895 86.687341 10.413869 -2.963708
-114.303471 86.687341 10.114501 -0.984005
-112.322047 86.687341 0.000000 0.000000
-110.340623 86.687341 0.000000 0.000000
-108.359199 86.687341 0.000000 0.000000
-106.377775 86.687341 0.000000 0.000000
-104.396351 86.687341 0.000000 0.000000
-102.414927 86.687341 0.000000 0.000000
-100.433503 86.687341 0.000000 0.000000
-98.452079 86.687341 0.000000 0.000000
-96.470655 86.687341 0.000000 0.000000
-94.489231 86.687341 0.000000 0.000000
-92.507807 86.687341 0.000000 0.000000
-90.526383 86.687341 0.000000 0.000000
-88.544959 86.687341 10.722627 0.383575
-86.563536 86.687341 9.357251 5.037970
-84.582112 86.687341 9.518814 4.058433
-82.600688 86.687341 10.962157 0.099599
-80.619264 86.687341 9.689275 1.929765
-78.637840 86.687341 10.013760 2.697152
-76.656416 86.687341 8.928699 -0.160422
-74.674992 86.687341 9.440001 0.114027
-72.693568 86.687341 10.119520 1.798613
-70.712144 86.687341 11.521605 2.976364
-68.730720 86.687341 10.838072 3.117161
-66.749296 86.687341 9.602628 2.019129
-64.767872 86.687341 10.833092 1.271406
-62.786448 86.687341 11.136220 -0.030746
-60.805024 86.687341 9.847925 1.944666
-58.823600 86.687341 9.834402 -0.400306
-56.842176 86.687341 10.186583 -0.002382
-54.860752 86.687341 11.236587 0.409420
-52.879328 86.687341 12.075622 0.057634
-50.897904 86.687341 14.022905 0.113791
-48.916480 86.687341 13.758594 0.029742
-46.935056 86.687341 11.599533 0.106489
-44.953632 86.687341 11.443127 0.893677
-42.972208 86.687341 11.361381 -0.043088
-40.990784 86.687341 10.862459 -0.063322
-39.009360 86.687341 11.319790 -0.800298
-37.027936 86.687341 12.131582 -1.507256
-35.046512 86.687341 12.017437 -2.713548
-33.065088 86.687341 11.840087 -0.111961
-31.083664 86.687341 11.826132 -0.643262
-29.102240 86.687341 12.573914 -1.784598
-27.120816 86.687341 10.675780 1.456491
-25.139392 86.687341 11.622249 2.311372
-23.157968 86.687341 12.263482 1.647935
-21.176544 86.687341 11.923526 1.891480
-19.195120 86.687341 11.933742 2.948630
-17.213696 86.687341 12.255589 2.588065
-15.232272 86.687341 0.000000 0.000000
-13.250848 86.687341 0.000000 0.000000
-11.269424 86.687341 0.000000 0.000000
-9.288001 86.687341 0.000000 0.000000
-7.306577 86.687341 0.000000 0.000000
-5.325153 86.687341 12.501438 -2.002890
-3.343729 86.687341 11.051620 -0.003051
-1.362305 86.687341 11.458953 3.877895
0.619119 86.687341 11.515602 3.962810
2.600543 86.687341 12.380383 2.725614
4.581967 86.687341 12.305586 1.525857
6.563391 86.687341 10.455481 0.579880
8.544815 86.687341 9.173268 -0.861100
10.526239 86.687341 9.823202 -0.907436
12.507663 86.687341 10.886355 2.258915
14.489087 86.687341 12.004091 1.298865
16.470511 86.687341 11.276446 -1.221941
18.451935 86.687341 10.549372 -0.827874
20.433359 86.687341 11.646243 -0.849940
22.414783 86.687341 12.659656 -0.078636
24.396207 86.687341 11.810089 1.446748
26.377631 86.687341 12.233642 2.286944
28.359055 86.687341 11.457850 1.369726
30.340479 86.687341 10.820612 -3.652301
32.321903 86.687341 11.012075 -4.082526
34.303327 86.687341 11.285678 0.745439
36.284751 86.687341 10.917043 -0.543091
38.266175 86.687341 10.914542 -0.930446
40.247599 86.687341 11.810699 -1.020341
42.229023 86.687341 10.655564 1.139053
44.210447 86.687341 11.430943 1.901873
46.191871 86.687341 11.944784 1.881422
48.173295 86.687341 10.960032 0.818781
50.154719 86.687341 10.746759 1.069176
52.136143 86.687341 10.169221 1.095592
54.117567 86.687341 10.266734 -1.874395
56.098991 86.687341 9.190472 2.985596
58.080415 86.687341 9.265388 3.549060
60.061839 86.687341 9.921581 2.342098
62.043263 86.687341 10.501914 -1.825639
64.024687 86.687341 11.226134 -1.580361
66.006110 86.687341 9.924593 -1.150726
67.987534 86.687341 0.000000 0.000000
-132.136287 84.705917 25.500675 6.160863
-130.154863 84.705917 23.836857 -8.400645
-128.173439 84.705917 43.742336 -224.895981
-126.192015 84.705917 5.738551 -4.712186
-124.210591 84.705917 9.695613 -4.707895
-122.229167 84.705917 12.125914 7.104793
-120.247743 84.705917 9.052568 -1.792767
-118.266319 84.705917 9.779760 0.322320
-116.284895 84.705917 11.474443 1.021266
-114.303471 84.705917 10.562737 1.034356
-112.322047 84.705917 0.000000 0.000000
-110.340623 84.705917 0.000000 0.000000
-108.359199 84.705917 0.000000 0.000000
-106.377775 84.705917 0.000000 0.000000
-104.396351 84.705917 0.000000 0.000000
-102.414927 84.705917 0.000000 0.000000
-100.433503 84.705917 0.000000 0.000000
-98.452079 84.705917 0.000000 0.000000
-96.470655 84.705917 0.000000 0.000000