TITLE = "B00002"
VARIABLES = "position", "position(2)", "Vx", "Vy"
ZONE T="Frame 0", I=102, J=78
-132.136287 98.575885 0.000000 0.000000
-130.154863 98.575885 8.323153 1.485664
-128.173439 98.575885 3.856481 1.133635
-126.192015 98.575885 4.519835 1.541345
-124.210591 98.575885 0.231952 0.149273
-122.229167 98.575885 0.175858 0.188179
-120.247743 98.575885 3.723614 0.111390
-118.266319 98.575885 0.264694 0.117659
-116.284895 98.575885 0.161685 0.126972
-114.303471 98.575885 0.000000 0.000000
-112.322047 98.575885 0.000000 0.000000
-110.340623 98.575885 0.000000 0.000000
-108.359199 98.575885 0.000000 0.000000
-106.377775 98.575885 0.000000 0.000000
-104.396351 98.575885 0.000000 0.000000
-102.414927 98.575885 0.000000 0.000000
-100.433503 98.575885 0.000000 0.000000
-98.452079 98.575885 0.000000 0.000000
-96.470655 98.575885 0.000000 0.000000
-94.489231 98.575885 0.000000 0.000000
-92.507807 98.575885 0.000000 0.000000
-90.526383 98.575885 0.000000 0.000000
-88.544959 98.575885 0.000000 0.000000
-86.563536 98.575885 0.131418 0.166852
-84.582112 98.575885 0.101827 0.125435
-82.600688 98.575885 0.102110 0.177011
-80.619264 98.575885 0.163156 0.097792
-78.637840 98.575885 0.131947 0.090244
-76.656416 98.575885 0.159747 0.183593
-74.674992 98.575885 0.153293 0.218435
-72.693568 98.575885 0.191253 0.116882
-70.712144 98.575885 0.115351 0.142310
-68.730720 98.575885 0.107820 0.106297
-66.749296 98.575885 0.153570 0.101992
-64.767872 98.575885 0.105873 0.129287
-62.786448 98.575885 0.142334 0.133196
-60.805024 98.575885 0.142310 0.088580
-58.823600 98.575885 0.155531 0.164536
-56.842176 98.575885 0.228542 0.200785
-54.860752 98.575885 0.110210 0.098075
-52.879328 98.575885 0.180319 0.147324
-50.897904 98.575885 0.243191 0.073830
-48.916480 98.575885 0.206585 0.093600
-46.935056 98.575885 0.200440 0.095405
-44.953632 98.575885 0.124775 0.088117
-42.972208 98.575885 0.175838 0.082206
-40.990784 98.575885 0.081770 0.049083
-39.009360 98.575885 0.230413 0.130620
-37.027936 98.575885 0.182167 0.120886
-35.046512 98.575885 0.253251 0.150878
-33.065088 98.575885 0.137334 0.187696
-31.083664 98.575885 0.235476 0.169077
-29.102240 98.575885 0.223354 0.167558
-27.120816 98.575885 0.204837 0.154907
-25.139392 98.575885 0.224224 0.128258
-23.157968 98.575885 0.282589 0.120597
-21.176544 98.575885 0.194105 0.164845
-19.195120 98.575885 0.162767 0.200696
-17.213696 98.575885 0.000000 0.000000
-15.232272 98.575885 0.000000 0.000000
-13.250848 98.575885 0.000000 0.000000
-11.269424 98.575885 0.000000 0.000000
-9.288001 98.575885 0.000000 0.000000
-7.306577 98.575885 0.000000 0.000000
-5.325153 98.575885 0.125748 0.084544
-3.343729 98.575885 0.099593 0.168008
-1.362305 98.575885 0.119461 0.105997
0.619119 98.575885 0.078694 0.186776
2.600543 98.575885 0.143228 0.183710
4.581967 98.575885 0.112003 0.177233
6.563391 98.575885 0.096482 0.124475
8.544815 98.575885 0.185838 0.142981
10.526239 98.575885 0.137508 0.111311
12.507663 98.575885 0.113141 0.132577
14.489087 98.575885 0.122223 0.108251
16.470511 98.575885 0.167523 0.139773
18.451935 98.575885 0.171383 0.166952
20.433359 98.575885 0.222053 0.171183
22.414783 98.575885 0.134642 0.215263
24.396207 98.575885 0.137580 0.181688
26.377631 98.575885 0.149721 0.142734
28.359055 98.575885 0.164615 0.145900
30.340479 98.575885 0.139946 0.187521
32.321903 98.575885 0.210993 0.173424
34.303327 98.575885 0.191880 0.179420
36.284751 98.575885 0.145468 0.149540
38.266175 98.575885 0.085835 0.143626
40.247599 98.575885 0.081589 0.149334
42.229023 98.575885 0.105589 0.196810
44.210447 98.575885 0.190032 0.170646
46.191871 98.575885 0.167763 0.159231
48.173295 98.575885 0.193454 0.157830
50.154719 98.575885 0.204498 0.139513
52.136143 98.575885 0.218749 0.124828
54.117567 98.575885 0.158471 0.125381
56.098991 98.575885 0.147191 0.097529
58.080415 98.575885 0.135524 0.173704
60.061839 98.575885 0.244943 0.140880
62.043263 98.575885 0.180935 0.150504
64.024687 98.575885 0.245733 0.173564
66.006110 98.575885 0.185841 0.129303
67.987534 98.575885 0.000000 0.000000
-132.136287 96.594461 3.792341 9.081225
-130.154863 96.594461 3.190208 4.518975
-128.173439 96.594461 2.612048 1.928840
-126.192015 96.594461 1.412940 0.861140
-124.210591 96.594461 0.789129 2.994705
-122.229167 96.594461 0.197863 0.219606
-120.247743 96.594461 0.138574 0.134183
-118.266319 96.594461 0.193395 0.082142
-116.284895 96.594461 0.110333 0.067777
-114.303471 96.594461 0.152151 0.167614
-112.322047 96.594461 0.000000 0.000000
-110.340623 96.594461 0.000000 0.000000
-108.359199 96.594461 0.000000 0.000000
-106.377775 96.594461 0.000000 0.000000
-104.396351 96.594461 0.000000 0.000000
-102.414927 96.594461 0.000000 0.000000
-100.433503 96.594461 0.000000 0.000000
-98.452079 96.594461 0.000000 0.000000
-96.470655 96.594461 0.000000 0.000000
-94.489231 96.594461 0.000000 0.000000
-92.507807 96.594461 0.000000 0.000000
-90.526383 96.594461 0.000000 0.000000
-88.544959 96.594461 0.000000 0.000000
-86.563536 96.594461 0.114341 0.169542
-84.582112 96.594461 0.084638 0.154742
-82.600688 96.594461 0.086718 0.126795
-80.619264 96.594461 0.105611 0.190362
-78.637840 96.594461 0.077870 0.087805
-76.656416 96.594461 0.086046 0.088438
-74.674992 96.594461 0.165836 0.118609
-72.693568 96.594461 0.163537 0.093349
-70.712144 96.594461 0.134713 0.100921
-68.730720 96.594461 0.069309 0.114348
-66.749296 96.594461 0.118748 0.074652
-64.767872 96.594461 0.071572 0.149835
-62.786448 96.594461 0.082409 0.114451
-60.805024 96.594461 0.185377 0.084162
-58.823600 96.594461 0.285119 0.144549
-56.842176 96.594461 0.180818 0.137818
-54.860752 96.594461 0.151011 0.166636
-52.879328 96.594461 0.161145 0.083737
-50.897904 96.594461 0.159563 0.096695
-48.916480 96.594461 0.184303 0.112571
-46.935056 96.594461 0.190414 0.075044
-44.953632 96.594461 0.096728 0.102039
-42.972208 96.594461 0.056200 0.109311
-40.990784 96.594461 0.144555 0.100657
-39.009360 96.594461 0.158515 0.102339
-37.027936 96.594461 0.222614 0.150847
-35.046512 96.594461 0.172325 0.091557
-33.065088 96.594461 0.229136 0.166639
-31.083664 96.594461 0.183494 0.150836
-29.102240 96.594461 0.240247 0.101394
-27.120816 96.594461 0.269737 0.164250
-25.139392 96.594461 0.206283 0.147025
-23.157968 96.594461 0.156269 0.093122
-21.176544 96.594461 0.228474 0.165042
-19.195120 96.594461 3.249765 1.103395
-17.213696 96.594461 4.180042 2.843670
-15.232272 96.594461 0.000000 0.000000
-13.250848 96.594461 0.000000 0.000000
-11.269424 96.594461 0.000000 0.000000
-9.288001 96.594461 0.000000 0.000000
-7.306577 96.594461 0.000000 0.000000
-5.325153 96.594461 0.113913 0.122470
-3.343729 96.594461 0.143119 0.190796
-1.362305 96.594461 0.070081 0.147219
0.619119 96.594461 0.118672 0.132355
2.600543 96.594461 0.109308 0.143468
4.581967 96.594461 0.066041 0.182774
6.563391 96.594461 0.087563 0.135374
8.544815 96.594461 0.104734 0.173530
10.526239 96.594461 0.132149 0.099890
12.507663 96.594461 0.108887 0.107684
14.489087 96.594461 0.063228 0.169956
16.470511 96.594461 0.171556 0.152331
18.451935 96.594461 0.197449 0.138341
20.433359 96.594461 0.168558 0.126518
22.414783 96.594461 0.128747 0.188696
24.396207 96.594461 0.128303 0.149378
26.377631 96.594461 0.125258 0.132524
28.359055 96.594461 0.129301 0.103302
30.340479 96.594461 0.084160 0.189212
32.321903 96.594461 0.164550 0.141018
34.303327 96.594461 0.162462 0.204525
36.284751 96.594461 0.163854 0.143196
38.266175 96.594461 0.143071 0.132515
40.247599 96.594461 0.108500 0.051489
42.229023 96.594461 0.083892 0.175500
44.210447 96.594461 0.154722 0.206884
46.191871 96.594461 0.184099 0.174227
48.173295 96.594461 0.196482 0.158675
50.154719 96.594461 0.174518 0.193397
52.136143 96.594461 0.205233 0.150050
54.117567 96.594461 0.189208 0.141947
56.098991 96.594461 0.153047 0.162891
58.080415 96.594461 0.143593 0.140888
60.061839 96.594461 0.170989 0.142750
62.043263 96.594461 0.123176 0.138169
64.024687 96.594461 0.157338 0.149189
66.006110 96.594461 0.175698 0.141053
67.987534 96.594461 0.000000 0.000000
-132.136287 94.613037 8.006344 9.107296
-130.154863 94.613037 10.315864 6.512291
-128.173439 94.613037 11.597791 5.519722
-126.192015 94.613037 9.265197 3.313804
-124.210591 94.613037 0.242460 0.189357
-122.229167 94.613037 0.237291 0.162017
-120.247743 94.613037 0.144099 0.090965
-118.266319 94.613037 0.187292 0.125968
-116.284895 94.613037 0.175832 0.145100
-114.303471 94.613037 0.566800 2.436796
-112.322047 94.613037 0.000000 0.000000
-110.340623 94.613037 0.000000 0.000000
-108.359199 94.613037 0.000000 0.000000
-106.377775 94.613037 0.000000 0.000000
-104.396351 94.613037 0.000000 0.000000
-102.414927 94.613037 0.000000 0.000000
-100.433503 94.613037 0.000000 0.000000
-98.452079 94.613037 0.000000 0.000000
-96.470655 94.613037 0.000000 0.000000
-94.489231 94.613037 0.000000 0.000000
-92.507807 94.613037 0.000000 0.000000
-90.526383 94.613037 0.000000 0.000000
-88.544959 94.613037 0.000000 0.000000
-86.563536 94.613037 0.100594 0.082365
-84.582112 94.613037 0.099960 0.165540
-82.600688 94.613037 0.084628 0.078035
-80.619264 94.613037 0.142783 0.170689
-78.637840 94.613037 0.081859 0.113927
-76.656416 94.613037 0.089888 0.107579
-74.674992 94.613037 0.135748 0.124074
-72.693568 94.613037 0.082823 0.102176
-70.712144 94.613037 0.125812 0.211272
-68.730720 94.613037 0.129526 0.143292
-66.749296 94.613037 0.063125 0.070734
-64.767872 94.613037 0.103784 0.086136
-62.786448 94.613037 0.170528 0.177722
-60.805024 94.613037 0.135705 0.122814
-58.823600 94.613037 0.143113 0.119863
-56.842176 94.613037 0.189989 0.046852
-54.860752 94.613037 0.152667 0.166721
-52.879328 94.613037 0.131691 0.072047
-50.897904 94.613037 0.137383 0.106075
-48.916480 94.613037 0.171305 0.090760
-46.935056 94.613037 0.152477 0.115550
-44.953632 94.613037 0.128668 0.108241
-42.972208 94.613037 0.118037 0.142542
-40.990784 94.613037 0.162284 0.149981
-39.009360 94.613037 0.126341 0.175634
-37.027936 94.613037 0.163176 0.144800
-35.046512 94.613037 0.154272 0.094644
-33.065088 94.613037 0.178033 0.097594
-31.083664 94.613037 0.073505 0.157607
-29.102240 94.613037 0.152277 0.133751
-27.120816 94.613037 0.139240 0.111906
-25.139392 94.613037 0.129514 0.125262
-23.157968 94.613037 0.187710 0.093704
-21.176544 94.613037 0.084315 0.116520
-19.195120 94.613037 0.192712 0.137629
-17.213696 94.613037 0.212093 0.180822
-15.232272 94.613037 0.000000 0.000000
-13.250848 94.613037 0.000000 0.000000
-11.269424 94.613037 0.000000 0.000000
-9.288001 94.613037 0.000000 0.000000
-7.306577 94.613037 0.000000 0.000000
-5.325153 94.613037 0.149682 0.156889
-3.343729 94.613037 0.102585 0.151675
-1.362305 94.613037 0.106099 0.112647
0.619119 94.613037 0.088789 0.099722
2.600543 94.613037 0.111777 0.128131
4.581967 94.613037 0.161243 0.206997
6.563391 94.613037 0.125918 0.229139
8.544815 94.613037 0.105989 0.238132
10.526239 94.613037 0.159660 0.148173
12.507663 94.613037 0.122069 0.134930
14.489087 94.613037 0.136188 0.203497
16.470511 94.613037 0.149716 0.146510
18.451935 94.613037 0.131198 0.073729
20.433359 94.613037 0.145109 0.177123
22.414783 94.613037 0.136372 0.156252
24.396207 94.613037 0.138721 0.136355
26.377631 94.613037 0.108060 0.111741
28.359055 94.613037 0.123151 0.145776
30.340479 94.613037 0.063943 0.175255
32.321903 94.613037 0.135036 0.101537
34.303327 94.613037 0.208813 0.171434
36.284751 94.613037 0.149685 0.152922
38.266175 94.613037 0.173502 0.153505
40.247599 94.613037 0.231948 0.113716
42.229023 94.613037 0.151225 0.194910
44.210447 94.613037 0.072199 0.191927
46.191871 94.613037 0.134393 0.169631
48.173295 94.613037 0.177881 0.151892
50.154719 94.613037 0.145018 0.229368
52.136143 94.613037 0.100340 0.174756
54.117567 94.613037 0.148717 0.130107
56.098991 94.613037 0.215423 0.147813
58.080415 94.613037 0.155901 0.110524
60.061839 94.613037 0.163319 0.158415
62.043263 94.613037 0.174304 0.103496
64.024687 94.613037 0.166488 0.189350
66.006110 94.613037 0.173562 0.159341
67.987534 94.613037 0.000000 0.000000
-132.136287 92.631613 7.497940 9.402127
-130.154863 92.631613 5.499468 2.316478
-128.173439 92.631613 10.367005 8.505920
-126.192015 92.631613 1.204787 2.560211
-124.210591 92.631613 0.213504 0.167293
-122.229167 92.631613 0.219903 0.106962
-120.247743 92.631613 0.162179 0.092084
-118.266319 92.631613 0.140339 0.118537
-116.284895 92.631613 0.255666 0.107989
-114.303471 92.631613 0.264380 0.118751
-112.322047 92.631613 0.000000 0.000000
-110.340623 92.631613 0.000000 0.000000
-108.359199 92.631613 0.000000 0.000000
-106.377775 92.631613 0.000000 0.000000
-104.396351 92.631613 0.000000 0.000000
-102.414927 92.631613 0.000000 0.000000
-100.433503 92.631613 0.000000 0.000000
-98.452079 92.631613 0.000000 0.000000
-96.470655 92.631613 0.000000 0.000000
-94.489231 92.631613 0.000000 0.000000
-92.507807 92.631613 0.000000 0.000000
-90.526383 92.631613 0.000000 0.000000
-88.544959 92.631613 0.127272 0.114932
-86.563536 92.631613 0.124977 0.135037
-84.582112 92.631613 0.075266 0.185789
-82.600688 92.631613 0.070037 0.141591
-80.619264 92.631613 0.100481 0.216266
-78.637840 92.631613 0.104373 0.176507
-76.656416 92.631613 0.094162 0.087436
-74.674992 92.631613 0.122840 0.164751
-72.693568 92.631613 0.091713 0.071212
-70.712144 92.631613 0.120642 0.183869
-68.730720 92.631613 0.141193 0.144837
-66.749296 92.631613 0.128537 0.114904
-64.767872 92.631613 0.153285 0.124355
-62.786448 92.631613 0.143097 0.216468
-60.805024 92.631613 0.162767 0.114585
-58.823600 92.631613 0.136479 0.094682
-56.842176 92.631613 0.149927 0.135721
-54.860752 92.631613 0.162959 0.213757
-52.879328 92.631613 0.194131 0.117260
-50.897904 92.631613 0.119972 0.132660
-48.916480 92.631613 0.125869 0.102080
-46.935056 92.631613 0.173791 0.162442
-44.953632 92.631613 0.124761 0.151123
-42.972208 92.631613 0.098897 0.127836
-40.990784 92.631613 0.106679 0.122220
-39.009360 92.631613 0.232232 0.148994
-37.027936 92.631613 0.178373 0.082455
-35.046512 92.631613 0.127783 0.142320
-33.065088 92.631613 0.147712 0.159129
-31.083664 92.631613 0.139783 0.081886
-29.102240 92.631613 0.103389 0.141561
-27.120816 92.631613 0.160794 0.067809
-25.139392 92.631613 0.147091 0.126780
-23.157968 92.631613 0.154460 0.075643
-21.176544 92.631613 0.182027 0.068771
-19.195120 92.631613 0.092938 0.103865
-17.213696 92.631613 0.170076 0.241200
-15.232272 92.631613 0.000000 0.000000
-13.250848 92.631613 0.000000 0.000000
-11.269424 92.631613 0.000000 0.000000
-9.288001 92.631613 0.000000 0.000000
-7.306577 92.631613 0.000000 0.000000
-5.325153 92.631613 0.158933 0.116605
-3.343729 92.631613 0.115812 0.097448
-1.362305 92.631613 0.050791 0.097139
0.619119 92.631613 0.052865 0.136831
2.600543 92.631613 0.150791 0.160616
4.581967 92.631613 0.161367 0.164010
6.563391 92.631613 0.114217 0.154892
8.544815 92.631613 0.112826 0.201974
10.526239 92.631613 0.113509 0.190227
12.507663 92.631613 0.138630 0.256457
14.489087 92.631613 0.159096 0.169705
16.470511 92.631613 0.118501 0.110130
18.451935 92.631613 0.151879 0.132900
20.433359 92.631613 0.147122 0.218127
22.414783 92.631613 0.153344 0.153470
24.396207 92.631613 0.125310 0.117619
26.377631 92.631613 0.116318 0.128692
28.359055 92.631613 0.106136 0.195007
30.340479 92.631613 0.083471 0.131418
32.321903 92.631613 0.107629 0.106830
34.303327 92.631613 0.157379 0.099255
36.284751 92.631613 0.167059 0.214207
38.266175 92.631613 0.225219 0.213015
40.247599 92.631613 0.213993 0.183154
42.229023 92.631613 0.172840 0.154399
44.210447 92.631613 0.195625 0.199985
46.191871 92.631613 0.102626 0.223190
48.173295 92.631613 0.164789 0.216895
50.154719 92.631613 0.207787 0.179675
52.136143 92.631613 0.167604 0.190644
54.117567 92.631613 0.146550 0.183415
56.098991 92.631613 0.204320 0.137442
58.080415 92.631613 0.189142 0.129663
60.061839 92.631613 0.246078 0.114540
62.043263 92.631613 0.209171 0.138682
64.024687 92.631613 0.200765 0.157011
66.006110 92.631613 0.283371 0.122105
67.987534 92.631613 0.000000 0.000000
-132.136287 90.650189 7.264879 8.913321
-130.154863 90.650189 7.722080 7.987261
-128.173439 90.650189 6.404192 1.645788
-126.192015 90.650189 0.177910 0.180023
-124.210591 90.650189 0.244309 0.165510
-122.229167 90.650189 0.116664 0.149533
-120.247743 90.650189 0.175079 0.135515
-118.266319 90.650189 0.177041 0.208539
-116.284895 90.650189 0.213157 0.084476
-114.303471 90.650189 0.251410 0.077871
-112.322047 90.650189 0.000000 0.000000
-110.340623 90.650189 0.000000 0.000000
-108.359199 90.650189 0.000000 0.000000
-106.377775 90.650189 0.000000 0.000000
-104.396351 90.650189 0.000000 0.000000
-102.414927 90.650189 0.000000 0.000000
-100.433503 90.650189 0.000000 0.000000
-98.452079 90.650189 0.000000 0.000000
-96.470655 90.650189 0.000000 0.000000
-94.489231 90.650189 0.000000 0.000000
-92.507807 90.650189 0.000000 0.000000
-90.526383 90.650189 0.000000 0.000000
-88.544959 90.650189 0.177939 0.122646
-86.563536 90.650189 0.116005 0.154769
-84.582112 90.650189 0.094524 0.083359
-82.600688 90.650189 0.146835 0.146739
-80.619264 90.650189 0.062052 0.152903
-78.637840 90.650189 0.144989 0.131510
-76.656416 90.650189 0.084395 0.114141
-74.674992 90.650189 0.110946 0.142355
-72.693568 90.650189 0.118316 0.151559
-70.712144 90.650189 0.071771 0.099441
-68.730720 90.650189 0.123062 0.165377
-66.749296 90.650189 0.112657 0.108600
-64.767872 90.650189 0.130497 0.108357
-62.786448 90.650189 0.149869 0.182079
-60.805024 90.650189 0.079571 0.103726
-58.823600 90.650189 0.096571 0.149081
-56.842176 90.650189 0.136848 0.146452
-54.860752 90.650189 0.167788 0.149759
-52.879328 90.650189 0.139848 0.118074
-50.897904 90.650189 0.132195 0.108950
-48.916480 90.650189 0.189871 0.119396
-46.935056 90.650189 0.135321 0.115696
-44.953632 90.650189 0.108815 0.074186
-42.972208 90.650189 0.110117 0.057078
-40.990784 90.650189 0.110164 0.121094
-39.009360 90.650189 0.139862 0.131677
-37.027936 90.650189 0.113725 0.105525
-35.046512 90.650189 0.145175 0.128402
-33.065088 90.650189 0.144374 0.119719
-31.083664 90.650189 0.097063 0.079734
-29.102240 90.650189 0.146442 0.170264
-27.120816 90.650189 0.157394 0.118243
-25.139392 90.650189 0.112126 0.146494
-23.157968 90.650189 0.080117 0.094914
-21.176544 90.650189 0.101270 0.119738
-19.195120 90.650189 0.153715 0.128918
-17.213696 90.650189 0.175230 0.242323
-15.232272 90.650189 0.000000 0.000000
-13.250848 90.650189 0.000000 0.000000
-11.269424 90.650189 0.000000 0.000000
-9.288001 90.650189 0.000000 0.000000
-7.306577 90.650189 0.000000 0.000000
-5.325153 90.650189 0.137126 0.132118
-3.343729 90.650189 0.135454 0.077517
-1.362305 90.650189 0.080729 0.131512
0.619119 90.650189 0.108483 0.169172
2.600543 90.650189 0.141274 0.198731
4.581967 90.650189 0.106890 0.173164
6.563391 90.650189 0.113726 0.161035
8.544815 90.650189 0.103931 0.182715
10.526239 90.650189 0.157467 0.174696
12.507663 90.650189 0.125454 0.193496
14.489087 90.650189 0.140105 0.184957
16.470511 90.650189 0.130996 0.201623
18.451935 90.650189 0.182757 0.128746
20.433359 90.650189 0.171539 0.190603
22.414783 90.650189 0.237833 0.116610
24.396207 90.650189 0.083945 0.180842
26.377631 90.650189 0.141119 0.197729
28.359055 90.650189 0.144566 0.214314
30.340479 90.650189 0.136016 0.145849
32.321903 90.650189 0.113554 0.129827
34.303327 90.650189 0.140518 0.148440
36.284751 90.650189 0.167472 0.196829
38.266175 90.650189 0.202637 0.230623
40.247599 90.650189 0.137486 0.188455
42.229023 90.650189 0.112682 0.169438
44.210447 90.650189 0.220537 0.230181
46.191871 90.650189 0.180571 0.203151
48.173295 90.650189 0.114098 0.231795
50.154719 90.650189 0.209957 0.211123
52.136143 90.650189 0.139870 0.207129
54.117567 90.650189 0.179319 0.177324
56.098991 90.650189 0.229226 0.122001
58.080415 90.650189 0.204962 0.155922
60.061839 90.650189 0.279112 0.136774
62.043263 90.650189 0.221497 0.140264
64.024687 90.650189 0.212854 0.132867
66.006110 90.650189 0.294471 0.157484
67.987534 90.650189 0.000000 0.000000
-132.136287 88.668765 9.863687 9.394769
-130.154863 88.668765 7.946619 9.328290
-128.173439 88.668765 7.359580 4.572742
-126.192015 88.668765 6.446618 0.834665
-124.210591 88.668765 0.223394 0.174598
-122.229167 88.668765 0.181880 0.092461
-120.247743 88.668765 0.185568 0.135011
-118.266319 88.668765 0.155760 0.118053
-116.284895 88.668765 0.186465 0.172953
-114.303471 88.668765 0.127915 0.101556
-112.322047 88.668765 0.000000 0.000000
-110.340623 88.668765 0.000000 0.000000
-108.359199 88.668765 0.000000 0.000000
-106.377775 88.668765 0.000000 0.000000
-104.396351 88.668765 0.000000 0.000000
-102.414927 88.668765 0.000000 0.000000
-100.433503 88.668765 0.000000 0.000000
-98.452079 88.668765 0.000000 0.000000
-96.470655 88.668765 0.000000 0.000000
-94.489231 88.668765 0.000000 0.000000
-92.507807 88.668765 0.000000 0.000000
-90.526383 88.668765 0.000000 0.000000
-88.544959 88.668765 0.125744 0.130006
-86.563536 88.668765 0.117449 0.161521
-84.582112 88.668765 0.118581 0.195195
-82.600688 88.668765 0.108662 0.253661
-80.619264 88.668765 0.085669 0.143907
-78.637840 88.668765 0.121493 0.173766
-76.656416 88.668765 0.088307 0.176775
-74.674992 88.668765 0.078583 0.135688
-72.693568 88.668765 0.061876 0.122156
-70.712144 88.668765 0.075865 0.135875
-68.730720 88.668765 0.140394 0.146851
-66.749296 88.668765 0.096298 0.094723
-64.767872 88.668765 0.112959 0.089396
-62.786448 88.668765 0.105341 0.119943
-60.805024 88.668765 0.069573 0.120635
-58.823600 88.668765 0.116949 0.101970
-56.842176 88.668765 0.121074 0.125655
-54.860752 88.668765 0.113058 0.087828
-52.879328 88.668765 0.137187 0.084106
-50.897904 88.668765 0.116223 0.134937
-48.916480 88.668765 0.173218 0.121283
-46.935056 88.668765 0.140723 0.049543
-44.953632 88.668765 0.120787 0.050761
-42.972208 88.668765 0.110140 0.107176
-40.990784 88.668765 0.070972 0.128438
-39.009360 88.668765 0.153896 0.113668
-37.027936 88.668765 0.090936 0.099227
-35.046512 88.668765 0.101625 0.161163
-33.065088 88.668765 0.085412 0.111632
-31.083664 88.668765 0.061502 0.066376
-29.102240 88.668765 0.117348 0.142340
-27.120816 88.668765 0.063224 0.149307
-25.139392 88.668765 0.096098 0.096140
-23.157968 88.668765 0.099873 0.146270
-21.176544 88.668765 0.119976 0.124072
-19.195120 88.668765 0.169147 0.180984
-17.213696 88.668765 0.204231 0.105204
-15.232272 88.668765 0.000000 0.000000
-13.250848 88.668765 0.000000 0.000000
-11.269424 88.668765 0.000000 0.000000
-9.288001 88.668765 0.000000 0.000000
-7.306577 88.668765 0.000000 0.000000
-5.325153 88.668765 0.138155 0.118336
-3.343729 88.668765 0.097529 0.094764
-1.362305 88.668765 0.084282 0.185582
0.619119 88.668765 0.101700 0.119774
2.600543 88.668765 0.144809 0.159070
4.581967 88.668765 0.092686 0.236201
6.563391 88.668765 0.111989 0.175747
8.544815 88.668765 0.144004 0.180612
10.526239 88.668765 0.157154 0.135925
12.507663 88.668765 0.148700 0.126138
14.489087 88.668765 0.168834 0.183475
16.470511 88.668765 0.180100 0.197818
18.451935 88.668765 0.132487 0.091325
20.433359 88.668765 0.236372 0.211297
22.414783 88.668765 0.208011 0.246388
24.396207 88.668765 0.162623 0.214478
26.377631 88.668765 0.093807 0.199159
28.359055 88.668765 0.165447 0.224878
30.340479 88.668765 0.173358 0.162935
32.321903 88.668765 0.213910 0.178685
34.303327 88.668765 0.182268 0.266847
36.284751 88.668765 0.136015 0.227677
38.266175 88.668765 0.166004 0.205227
40.247599 88.668765 0.134276 0.226108
42.229023 88.668765 0.135929 0.248224
44.210447 88.668765 0.214074 0.203989
46.191871 88.668765 0.160319 0.228804
48.173295 88.668765 0.158355 0.268421
50.154719 88.668765 0.215110 0.263335
52.136143 88.668765 0.214850 0.201575
54.117567 88.668765 0.251313 0.144033
56.098991 88.668765 0.245988 0.157689
58.080415 88.668765 0.207749 0.172154
60.061839 88.668765 0.227176 0.184175
62.043263 88.668765 0.267742 0.149571
64.024687 88.668765 0.248302 0.163455
66.006110 88.668765 0.285067 0.166531
67.987534 88.668765 0.000000 0.000000
-132.136287 86.687341 8.333807 8.544809
-130.154863 86.687341 4.109106 6.838504
-128.173439 86.687341 8.257542 0.645891
-126.192015 86.687341 0.399860 0.362176
-124.210591 86.687341 0.204637 0.176148
-122.229167 86.687341 0.130825 0.166826
-120.247743 86.687341 0.310953 0.098712
-118.266319 86.687341 0.171269 0.103785
-116.284895 86.687341 0.201925 0.103749
-114.303471 86.687341 0.194445 0.122256
-112.322047 86.687341 0.000000 0.000000
-110.340623 86.687341 0.000000 0.000000
-108.359199 86.687341 0.000000 0.000000
-106.377775 86.687341 0.000000 0.000000
-104.396351 86.687341 0.000000 0.000000
-102.414927 86.687341 0.000000 0.000000
-100.433503 86.687341 0.000000 0.000000
-98.452079 86.687341 0.000000 0.000000
-96.470655 86.687341 0.000000 0.000000
-94.489231 86.687341 0.000000 0.000000
-92.507807 86.687341 0.000000 0.000000
-90.526383 86.687341 0.000000 0.000000
-88.544959 86.687341 0.085629 0.137818
-86.563536 86.687341 0.094897 0.167034
-84.582112 86.687341 0.097261 0.236160
-82.600688 86.687341 0.045984 0.182403
-80.619264 86.687341 0.077155 0.155431
-78.637840 86.687341 0.068898 0.154088
-76.656416 86.687341 0.147862 0.193812
-74.674992 86.687341 0.107216 0.100106
-72.693568 86.687341 0.064164 0.153048
-70.712144 86.687341 0.067573 0.111169
-68.730720 86.687341 0.116222 0.092521
-66.749296 86.687341 0.119517 0.105368
-64.767872 86.687341 0.097206 0.097969
-62.786448 86.687341 0.101438 0.121701
-60.805024 86.687341 0.101660 0.122907
-58.823600 86.687341 0.079225 0.145066
-56.842176 86.687341 0.121602 0.126728
-54.860752 86.687341 0.139656 0.106682
-52.879328 86.687341 0.064509 0.095569
-50.897904 86.687341 0.092403 0.119738
-48.916480 86.687341 0.142512 0.125294
-46.935056 86.687341 0.095589 0.064759
-44.953632 86.687341 0.138545 0.060753
-42.972208 86.687341 0.075874 0.140093
-40.990784 86.687341 0.102911 0.101576
-39.009360 86.687341 0.175142 0.106256
-37.027936 86.687341 0.114620 0.108298
-35.046512 86.687341 0.108698 0.134964
-33.065088 86.687341 0.084498 0.104550
-31.083664 86.687341 0.102899 0.066631
-29.102240 86.687341 0.065509 0.124158
-27.120816 86.687341 0.108198 0.091548
-25.139392 86.687341 0.075345 0.068593
-23.157968 86.687341 0.079542 0.049961
-21.176544 86.687341 0.090313 0.057365
-19.195120 86.687341 0.146176 0.178605
-17.213696 86.687341 0.141312 0.122581
-15.232272 86.687341 0.000000 0.000000
-13.250848 86.687341 0.000000 0.000000
-11.269424 86.687341 0.000000 0.000000
-9.288001 86.687341 0.000000 0.000000
-7.306577 86.687341 0.000000 0.000000
-5.325153 86.687341 0.135456 0.102767
-3.343729 86.687341 0.090807 0.098169
-1.362305 86.687341 0.074681 0.218845
0.619119 86.687341 0.102890 0.163160
2.600543 86.687341 0.134349 0.236138
4.581967 86.687341 0.137243 0.306759
6.563391 86.687341 0.089518 0.109108
8.544815 86.687341 0.183964 0.173228
10.526239 86.687341 0.139160 0.142417
12.507663 86.687341 0.101879 0.167303
14.489087 86.687341 0.210666 0.215234
16.470511 86.687341 0.147225 0.224785
18.451935 86.687341 0.137261 0.185806
20.433359 86.687341 0.209768 0.220850
22.414783 86.687341 0.171780 0.199048
24.396207 86.687341 0.165239 0.165920
26.377631 86.687341 0.110327 0.179920
28.359055 86.687341 0.173067 0.201613
30.340479 86.687341 0.187384 0.181066
32.321903 86.687341 0.226912 0.286587
34.303327 86.687341 0.207711 0.260622
36.284751 86.687341 0.173877 0.273702
38.266175 86.687341 0.220291 0.208801
40.247599 86.687341 0.199864 0.271684
42.229023 86.687341 0.214412 0.293761
44.210447 86.687341 0.230436 0.242682
46.191871 86.687341 0.178307 0.246832
48.173295 86.687341 0.221644 0.276668
50.154719 86.687341 0.206767 0.225392
52.136143 86.687341 0.268295 0.193307
54.117567 86.687341 0.233477 0.218284
56.098991 86.687341 0.213098 0.213967
58.080415 86.687341 0.250172 0.184244
60.061839 86.687341 0.244925 0.184749
62.043263 86.687341 0.315198 0.169852
64.024687 86.687341 0.280402 0.212141
66.006110 86.687341 0.301977 0.137382
67.987534 86.687341 0.000000 0.000000
-132.136287 84.705917 7.471557 8.423369
-130.154863 84.705917 8.091794 7.955280
-128.173439 84.705917 6.576355 2.643335
-126.192015 84.705917 0.238904 0.262634
-124.210591 84.705917 0.238990 0.160929
-122.229167 84.705917 0.203014 0.189752
-120.247743 84.705917 0.268077 0.086703
-118.266319 84.705917 0.199656 0.107624
-116.284895 84.705917 0.132705 0.110735
-114.303471 84.705917 0.290594 0.111771
-112.322047 84.705917 0.000000 0.000000
-110.340623 84.705917 0.000000 0.000000
-108.359199 84.705917 0.000000 0.000000
-106.377775 84.705917 0.000000 0.000000
-104.396351 84.705917 0.000000 0.000000
-102.414927 84.705917 0.000000 0.000000
-100.433503 84.705917 0.000000 0.000000
-98.452079 84.705917 0.000000 0.000000
-96.470655 84.705917 0.000000 0.000000
-94.489231 84.705917 0.000000 0.000000
-92.507807 84.705917 0.000000 0.000000
-90.526383 84.705917 0.000000 0.000000
-88.544959 84.705917 0.045699 0.097617
-86.563536 84.705917 0.061923 0.128263
-84.582112 84.705917 0.067747 0.128205
-82.600688 84.705917 0.068725 0.069763
-80.619264 84.705917 0.100920 0.206849
-78.637840 84.705917 0.090237 0.194056
-76.656416 84.705917 0.095744 0.134539
-74.674992 84.705917 0.115637 0.150757
-72.693568 84.705917 0.072800 0.178169
-70.712144 84.705917 0.093867 0.099392
-68.730720 84.705917 0.070816 0.141515
-66.749296 84.705917 0.134626 0.136790
-64.767872 84.705917 0.081971 0.098411
-62.786448 84.705917 0.068510 0.114330
-60.805024 84.705917 0.053814 0.128861