TITLE = "B00006"
VARIABLES = "position", "position(2)", "Vx", "Vy"
ZONE T="Frame 0", I=102, J=78
-132.136287 98.575885 0.000000 0.000000
-130.154863 98.575885 10.847855 0.394451
-128.173439 98.575885 11.202847 0.550448
-126.192015 98.575885 11.471260 0.472993
-124.210591 98.575885 11.495787 0.521913
-122.229167 98.575885 11.205129 0.331993
-120.247743 98.575885 10.940056 0.366230
-118.266319 98.575885 11.246534 0.436250
-116.284895 98.575885 11.169303 0.581006
-114.303471 98.575885 0.000000 0.000000
-112.322047 98.575885 0.000000 0.000000
-110.340623 98.575885 0.000000 0.000000
-108.359199 98.575885 0.000000 0.000000
-106.377775 98.575885 0.000000 0.000000
-104.396351 98.575885 0.000000 0.000000
-102.414927 98.575885 0.000000 0.000000
-100.433503 98.575885 0.000000 0.000000
-98.452079 98.575885 0.000000 0.000000
-96.470655 98.575885 0.000000 0.000000
-94.489231 98.575885 0.000000 0.000000
-92.507807 98.575885 0.000000 0.000000
-90.526383 98.575885 0.000000 0.000000
-88.544959 98.575885 0.000000 0.000000
-86.563536 98.575885 11.327422 0.214975
-84.582112 98.575885 11.348837 0.405277
-82.600688 98.575885 11.663139 0.326491
-80.619264 98.575885 11.566238 0.376229
-78.637840 98.575885 11.466245 0.412825
-76.656416 98.575885 11.361472 0.164525
-74.674992 98.575885 11.543637 0.219091
-72.693568 98.575885 11.431003 0.366065
-70.712144 98.575885 11.488781 0.274127
-68.730720 98.575885 11.429153 0.340302
-66.749296 98.575885 11.369554 0.121921
-64.767872 98.575885 11.263249 0.275059
-62.786448 98.575885 11.402183 0.143016
-60.805024 98.575885 11.194510 0.187188
-58.823600 98.575885 11.186854 0.398192
-56.842176 98.575885 11.209070 -0.025251
-54.860752 98.575885 11.257079 0.033666
-52.879328 98.575885 11.557530 -0.091741
-50.897904 98.575885 11.443536 0.123179
-48.916480 98.575885 11.465732 -0.049898
-46.935056 98.575885 11.069500 -0.067225
-44.953632 98.575885 11.275236 -0.081277
-42.972208 98.575885 11.465967 0.082977
-40.990784 98.575885 11.180250 -0.108824
-39.009360 98.575885 11.295513 0.026584
-37.027936 98.575885 11.393911 -0.025005
-35.046512 98.575885 11.504302 -0.213254
-33.065088 98.575885 11.378705 -0.157698
-31.083664 98.575885 11.161133 -0.209899
-29.102240 98.575885 11.120322 -0.170564
-27.120816 98.575885 10.978270 0.016061
-25.139392 98.575885 11.187004 0.091565
-23.157968 98.575885 11.098333 0.033287
-21.176544 98.575885 10.935083 -0.368204
-19.195120 98.575885 11.215134 -0.017910
-17.213696 98.575885 11.147254 0.172112
-15.232272 98.575885 0.000000 0.000000
-13.250848 98.575885 0.000000 0.000000
-11.269424 98.575885 0.000000 0.000000
-9.288001 98.575885 0.000000 0.000000
-7.306577 98.575885 0.000000 0.000000
-5.325153 98.575885 0.000000 0.000000
-3.343729 98.575885 0.000000 0.000000
-1.362305 98.575885 11.043968 -0.037825
0.619119 98.575885 11.223991 -0.095015
2.600543 98.575885 11.076627 -0.068639
4.581967 98.575885 11.460819 -0.011991
6.563391 98.575885 11.195035 -0.180851
8.544815 98.575885 11.034891 -0.158859
10.526239 98.575885 11.044930 -0.078508
12.507663 98.575885 11.303424 -0.096996
14.489087 98.575885 11.037979 0.011326
16.470511 98.575885 11.132619 -0.040767
18.451935 98.575885 11.061255 0.012115
20.433359 98.575885 10.987593 -0.157180
22.414783 98.575885 10.994096 -0.077522
24.396207 98.575885 11.041792 -0.171401
26.377631 98.575885 10.926226 0.062238
28.359055 98.575885 10.982775 -0.095721
30.340479 98.575885 11.074938 -0.267043
32.321903 98.575885 10.854282 -0.141133
34.303327 98.575885 11.009348 0.042670
36.284751 98.575885 10.929436 0.094665
38.266175 98.575885 11.023524 -0.033189
40.247599 98.575885 10.919776 0.116748
42.229023 98.575885 10.818476 -0.138403
44.210447 98.575885 10.851207 -0.008133
46.191871 98.575885 10.873953 -0.028757
48.173295 98.575885 10.900272 0.134825
50.154719 98.575885 10.972322 0.115540
52.136143 98.575885 10.931890 0.057857
54.117567 98.575885 10.843556 0.164705
56.098991 98.575885 11.096635 -0.307833
58.080415 98.575885 10.916946 -0.111888
60.061839 98.575885 10.889007 0.004800
62.043263 98.575885 11.143451 0.078464
64.024687 98.575885 11.051546 0.183013
66.006110 98.575885 10.988487 0.330393
67.987534 98.575885 0.000000 0.000000
-132.136287 96.594461 2.145080 10.241304
-130.154863 96.594461 11.120477 0.309059
-128.173439 96.594461 11.087167 0.353720
-126.192015 96.594461 11.592214 0.467131
-124.210591 96.594461 11.141265 0.391835
-122.229167 96.594461 11.102301 0.343058
-120.247743 96.594461 11.057606 0.343597
-118.266319 96.594461 11.588625 0.364115
-116.284895 96.594461 11.174370 0.517156
-114.303471 96.594461 0.000000 0.000000
-112.322047 96.594461 0.000000 0.000000
-110.340623 96.594461 0.000000 0.000000
-108.359199 96.594461 0.000000 0.000000
-106.377775 96.594461 0.000000 0.000000
-104.396351 96.594461 0.000000 0.000000
-102.414927 96.594461 0.000000 0.000000
-100.433503 96.594461 0.000000 0.000000
-98.452079 96.594461 0.000000 0.000000
-96.470655 96.594461 0.000000 0.000000
-94.489231 96.594461 0.000000 0.000000
-92.507807 96.594461 0.000000 0.000000
-90.526383 96.594461 0.000000 0.000000
-88.544959 96.594461 11.293862 0.320353
-86.563536 96.594461 11.205864 0.227450
-84.582112 96.594461 11.408982 0.336690
-82.600688 96.594461 11.637068 0.361828
-80.619264 96.594461 11.658375 0.343488
-78.637840 96.594461 11.523281 0.397828
-76.656416 96.594461 11.455032 0.184714
-74.674992 96.594461 11.608837 0.215725
-72.693568 96.594461 11.434907 0.227002
-70.712144 96.594461 11.338931 0.193184
-68.730720 96.594461 11.443767 0.248730
-66.749296 96.594461 11.516568 0.036446
-64.767872 96.594461 11.532521 0.160538
-62.786448 96.594461 11.472803 0.058172
-60.805024 96.594461 11.269675 0.204062
-58.823600 96.594461 11.296795 0.408954
-56.842176 96.594461 11.290524 0.155133
-54.860752 96.594461 11.262948 0.021856
-52.879328 96.594461 11.412140 -0.089502
-50.897904 96.594461 11.404524 0.039418
-48.916480 96.594461 11.205542 0.060004
-46.935056 96.594461 11.174692 -0.047846
-44.953632 96.594461 11.329731 0.114319
-42.972208 96.594461 11.531601 0.002790
-40.990784 96.594461 11.450069 -0.043825
-39.009360 96.594461 11.318037 0.114509
-37.027936 96.594461 11.601343 -0.295211
-35.046512 96.594461 11.287026 -0.161220
-33.065088 96.594461 11.307579 0.086878
-31.083664 96.594461 11.043905 0.113154
-29.102240 96.594461 11.411534 -0.051630
-27.120816 96.594461 11.249668 -0.039829
-25.139392 96.594461 11.333340 0.016861
-23.157968 96.594461 11.221160 0.046633
-21.176544 96.594461 11.053831 -0.350437
-19.195120 96.594461 11.251760 -0.202667
-17.213696 96.594461 11.338967 -0.015562
-15.232272 96.594461 0.000000 0.000000
-13.250848 96.594461 0.000000 0.000000
-11.269424 96.594461 0.000000 0.000000
-9.288001 96.594461 0.000000 0.000000
-7.306577 96.594461 0.000000 0.000000
-5.325153 96.594461 0.000000 0.000000
-3.343729 96.594461 0.000000 0.000000
-1.362305 96.594461 10.907621 0.096017
0.619119 96.594461 11.102166 -0.145874
2.600543 96.594461 11.029451 -0.027988
4.581967 96.594461 11.255602 -0.026102
6.563391 96.594461 11.155189 -0.041181
8.544815 96.594461 11.376111 0.122275
10.526239 96.594461 11.134321 -0.140034
12.507663 96.594461 11.202420 -0.060816
14.489087 96.594461 10.988443 -0.038016
16.470511 96.594461 11.092693 -0.106570
18.451935 96.594461 11.024783 -0.078348
20.433359 96.594461 10.984987 -0.110881
22.414783 96.594461 10.952553 -0.113636
24.396207 96.594461 11.006125 -0.068288
26.377631 96.594461 11.089355 -0.097756
28.359055 96.594461 11.013380 -0.007838
30.340479 96.594461 11.080064 -0.197613
32.321903 96.594461 11.078926 -0.147092
34.303327 96.594461 11.071889 0.083547
36.284751 96.594461 10.986836 -0.086443
38.266175 96.594461 11.040997 -0.198594
40.247599 96.594461 10.924316 0.010107
42.229023 96.594461 10.736660 0.016046
44.210447 96.594461 10.919453 0.199316
46.191871 96.594461 10.942183 0.016851
48.173295 96.594461 10.968499 -0.007504
50.154719 96.594461 11.039968 0.067246
52.136143 96.594461 10.938489 0.076229
54.117567 96.594461 10.876698 0.073849
56.098991 96.594461 11.150696 -0.070955
58.080415 96.594461 10.880643 -0.031933
60.061839 96.594461 10.700683 0.031509
62.043263 96.594461 11.127536 0.120558
64.024687 96.594461 10.987021 0.138929
66.006110 96.594461 10.950068 0.312836
67.987534 96.594461 0.000000 0.000000
-132.136287 94.613037 5.105204 0.004293
-130.154863 94.613037 5.103057 -5.297977
-128.173439 94.613037 10.873077 0.293690
-126.192015 94.613037 11.444447 0.348245
-124.210591 94.613037 10.879930 0.261977
-122.229167 94.613037 11.090715 0.467233
-120.247743 94.613037 11.385777 0.416953
-118.266319 94.613037 11.402383 0.348662
-116.284895 94.613037 11.063819 0.498227
-114.303471 94.613037 0.000000 0.000000
-112.322047 94.613037 0.000000 0.000000
-110.340623 94.613037 0.000000 0.000000
-108.359199 94.613037 0.000000 0.000000
-106.377775 94.613037 0.000000 0.000000
-104.396351 94.613037 0.000000 0.000000
-102.414927 94.613037 0.000000 0.000000
-100.433503 94.613037 0.000000 0.000000
-98.452079 94.613037 0.000000 0.000000
-96.470655 94.613037 0.000000 0.000000
-94.489231 94.613037 0.000000 0.000000
-92.507807 94.613037 0.000000 0.000000
-90.526383 94.613037 0.000000 0.000000
-88.544959 94.613037 11.569673 0.265859
-86.563536 94.613037 11.152311 0.239083
-84.582112 94.613037 11.356733 0.288129
-82.600688 94.613037 11.484628 0.308663
-80.619264 94.613037 11.483608 0.209698
-78.637840 94.613037 11.421060 0.298082
-76.656416 94.613037 11.469395 0.352705
-74.674992 94.613037 11.414878 0.124031
-72.693568 94.613037 11.379278 0.140111
-70.712144 94.613037 11.390539 0.274955
-68.730720 94.613037 11.371910 0.182946
-66.749296 94.613037 11.392976 0.101975
-64.767872 94.613037 11.640582 0.021476
-62.786448 94.613037 11.463505 -0.126996
-60.805024 94.613037 11.605848 0.101178
-58.823600 94.613037 11.507935 0.160865
-56.842176 94.613037 11.607764 0.178481
-54.860752 94.613037 11.609879 0.048233
-52.879328 94.613037 11.378531 -0.048892
-50.897904 94.613037 11.443866 -0.061013
-48.916480 94.613037 11.134061 0.144677
-46.935056 94.613037 11.558436 -0.131657
-44.953632 94.613037 11.342259 0.147383
-42.972208 94.613037 11.588090 -0.194156
-40.990784 94.613037 11.376637 -0.126388
-39.009360 94.613037 11.287897 -0.073326
-37.027936 94.613037 11.652130 -0.292829
-35.046512 94.613037 11.326690 -0.089044
-33.065088 94.613037 11.385292 0.081720
-31.083664 94.613037 11.139797 0.115101
-29.102240 94.613037 11.463406 -0.012228
-27.120816 94.613037 11.360450 -0.131597
-25.139392 94.613037 11.339857 -0.066807
-23.157968 94.613037 11.315602 -0.020215
-21.176544 94.613037 11.276974 -0.187743
-19.195120 94.613037 11.163000 -0.117804
-17.213696 94.613037 11.149578 0.000545
-15.232272 94.613037 11.273539 0.208109
-13.250848 94.613037 0.000000 0.000000
-11.269424 94.613037 0.000000 0.000000
-9.288001 94.613037 0.000000 0.000000
-7.306577 94.613037 0.000000 0.000000
-5.325153 94.613037 0.000000 0.000000
-3.343729 94.613037 0.000000 0.000000
-1.362305 94.613037 11.026858 0.197607
0.619119 94.613037 11.051330 0.147921
2.600543 94.613037 10.988453 -0.056121
4.581967 94.613037 11.068728 -0.031619
6.563391 94.613037 11.204775 -0.040227
8.544815 94.613037 11.256812 0.149501
10.526239 94.613037 11.080187 -0.217659
12.507663 94.613037 11.296253 0.109742
14.489087 94.613037 11.087774 -0.169644
16.470511 94.613037 10.971187 -0.097017
18.451935 94.613037 10.989562 -0.009537
20.433359 94.613037 10.993621 -0.152457
22.414783 94.613037 10.977853 -0.177155
24.396207 94.613037 11.092750 0.085027
26.377631 94.613037 11.095116 -0.022385
28.359055 94.613037 11.046154 0.054931
30.340479 94.613037 11.118958 -0.104063
32.321903 94.613037 11.075487 -0.141909
34.303327 94.613037 10.972722 0.119425
36.284751 94.613037 11.068916 -0.261298
38.266175 94.613037 10.977284 -0.233197
40.247599 94.613037 10.919691 -0.160515
42.229023 94.613037 10.809083 0.239894
44.210447 94.613037 11.005657 0.233475
46.191871 94.613037 11.088517 -0.005535
48.173295 94.613037 11.024313 0.115267
50.154719 94.613037 11.048796 0.085897
52.136143 94.613037 10.976720 0.009682
54.117567 94.613037 10.995368 0.176386
56.098991 94.613037 11.158441 0.080883
58.080415 94.613037 10.915934 0.007951
60.061839 94.613037 10.712259 0.083228
62.043263 94.613037 11.078825 0.126270
64.024687 94.613037 10.921434 -0.096043
66.006110 94.613037 10.916645 0.083667
67.987534 94.613037 0.000000 0.000000
-132.136287 92.631613 8.538165 12.109218
-130.154863 92.631613 10.860052 0.632622
-128.173439 92.631613 10.863877 0.020655
-126.192015 92.631613 11.226207 -0.057001
-124.210591 92.631613 10.819471 0.510266
-122.229167 92.631613 11.217029 0.529116
-120.247743 92.631613 11.074826 0.429047
-118.266319 92.631613 11.036933 0.385248
-116.284895 92.631613 11.111390 0.641285
-114.303471 92.631613 0.000000 0.000000
-112.322047 92.631613 0.000000 0.000000
-110.340623 92.631613 0.000000 0.000000
-108.359199 92.631613 0.000000 0.000000
-106.377775 92.631613 0.000000 0.000000
-104.396351 92.631613 0.000000 0.000000
-102.414927 92.631613 0.000000 0.000000
-100.433503 92.631613 0.000000 0.000000
-98.452079 92.631613 0.000000 0.000000
-96.470655 92.631613 0.000000 0.000000
-94.489231 92.631613 0.000000 0.000000
-92.507807 92.631613 0.000000 0.000000
-90.526383 92.631613 0.000000 0.000000
-88.544959 92.631613 11.615017 0.273291
-86.563536 92.631613 11.183968 0.242357
-84.582112 92.631613 11.314569 0.365620
-82.600688 92.631613 11.359201 0.263048
-80.619264 92.631613 11.304800 0.254762
-78.637840 92.631613 11.331536 0.243915
-76.656416 92.631613 11.423714 0.360753
-74.674992 92.631613 11.384769 0.255243
-72.693568 92.631613 11.342954 0.277116
-70.712144 92.631613 11.763054 0.235067
-68.730720 92.631613 11.484486 0.093615
-66.749296 92.631613 11.235044 0.185400
-64.767872 92.631613 11.506959 0.033093
-62.786448 92.631613 11.325590 -0.107557
-60.805024 92.631613 11.594065 -0.031643
-58.823600 92.631613 11.578899 0.017004
-56.842176 92.631613 11.654892 -0.022603
-54.860752 92.631613 11.653022 -0.123007
-52.879328 92.631613 11.587692 -0.163682
-50.897904 92.631613 11.394053 -0.055908
-48.916480 92.631613 11.424733 -0.112459
-46.935056 92.631613 11.499294 -0.128943
-44.953632 92.631613 11.190831 0.046844
-42.972208 92.631613 11.612500 -0.143802
-40.990784 92.631613 11.213319 -0.095678
-39.009360 92.631613 11.344518 -0.167885
-37.027936 92.631613 11.446252 -0.157020
-35.046512 92.631613 11.371520 -0.061483
-33.065088 92.631613 11.399424 0.109976
-31.083664 92.631613 11.545079 0.070654
-29.102240 92.631613 11.531760 -0.023541
-27.120816 92.631613 11.280738 -0.091464
-25.139392 92.631613 11.239745 -0.032997
-23.157968 92.631613 11.351253 -0.183598
-21.176544 92.631613 11.462545 -0.150647
-19.195120 92.631613 11.169909 -0.119402
-17.213696 92.631613 11.211665 -0.081911
-15.232272 92.631613 11.231890 -0.082842
-13.250848 92.631613 0.000000 0.000000
-11.269424 92.631613 0.000000 0.000000
-9.288001 92.631613 0.000000 0.000000
-7.306577 92.631613 0.000000 0.000000
-5.325153 92.631613 0.000000 0.000000
-3.343729 92.631613 0.000000 0.000000
-1.362305 92.631613 11.206678 -0.077375
0.619119 92.631613 11.156015 -0.179283
2.600543 92.631613 11.055439 -0.121251
4.581967 92.631613 11.166329 -0.095013
6.563391 92.631613 11.294311 -0.211379
8.544815 92.631613 10.979369 0.118728
10.526239 92.631613 11.073537 -0.012865
12.507663 92.631613 11.190255 0.073409
14.489087 92.631613 11.240487 -0.146337
16.470511 92.631613 10.962471 -0.137531
18.451935 92.631613 11.022596 0.036502
20.433359 92.631613 11.009651 -0.217650
22.414783 92.631613 10.984392 -0.140356
24.396207 92.631613 11.040544 0.013343
26.377631 92.631613 10.891489 -0.103417
28.359055 92.631613 10.895885 0.112255
30.340479 92.631613 10.970388 0.099620
32.321903 92.631613 10.958632 0.089745
34.303327 92.631613 10.901813 0.007671
36.284751 92.631613 10.980886 -0.105876
38.266175 92.631613 11.008820 -0.183980
40.247599 92.631613 10.993782 -0.075741
42.229023 92.631613 10.934937 0.283442
44.210447 92.631613 11.015692 0.128105
46.191871 92.631613 11.042486 -0.127667
48.173295 92.631613 11.032235 0.179911
50.154719 92.631613 11.016151 0.034090
52.136143 92.631613 10.957945 -0.114735
54.117567 92.631613 11.066454 0.032524
56.098991 92.631613 11.089693 -0.120857
58.080415 92.631613 11.069266 0.034080
60.061839 92.631613 10.924010 -0.003871
62.043263 92.631613 11.076723 0.063609
64.024687 92.631613 11.035232 -0.086313
66.006110 92.631613 10.969642 -0.039830
67.987534 92.631613 0.000000 0.000000
-132.136287 90.650189 -2.463373 7.895807
-130.154863 90.650189 11.163155 0.886109
-128.173439 90.650189 10.829235 0.533152
-126.192015 90.650189 10.982951 0.464221
-124.210591 90.650189 11.204006 0.529085
-122.229167 90.650189 11.304260 0.481459
-120.247743 90.650189 10.966604 0.338013
-118.266319 90.650189 10.907841 0.340516
-116.284895 90.650189 10.882940 0.669999
-114.303471 90.650189 11.565970 0.574655
-112.322047 90.650189 0.000000 0.000000
-110.340623 90.650189 0.000000 0.000000
-108.359199 90.650189 0.000000 0.000000
-106.377775 90.650189 0.000000 0.000000
-104.396351 90.650189 0.000000 0.000000
-102.414927 90.650189 0.000000 0.000000
-100.433503 90.650189 0.000000 0.000000
-98.452079 90.650189 0.000000 0.000000
-96.470655 90.650189 0.000000 0.000000
-94.489231 90.650189 0.000000 0.000000
-92.507807 90.650189 0.000000 0.000000
-90.526383 90.650189 0.000000 0.000000
-88.544959 90.650189 11.487694 0.355894
-86.563536 90.650189 11.423068 0.423002
-84.582112 90.650189 11.508902 0.246458
-82.600688 90.650189 11.366136 0.291338
-80.619264 90.650189 11.301415 0.287111
-78.637840 90.650189 11.389915 0.229955
-76.656416 90.650189 11.432986 0.305283
-74.674992 90.650189 11.327724 0.347624
-72.693568 90.650189 11.275899 0.391440
-70.712144 90.650189 11.610944 0.401366
-68.730720 90.650189 11.682441 0.191189
-66.749296 90.650189 11.350833 0.132158
-64.767872 90.650189 11.557344 0.120883
-62.786448 90.650189 11.495706 -0.045650
-60.805024 90.650189 11.667476 0.054770
-58.823600 90.650189 11.644875 0.221099
-56.842176 90.650189 11.487588 0.026131
-54.860752 90.650189 11.548861 -0.067212
-52.879328 90.650189 11.746069 0.045550
-50.897904 90.650189 11.339168 -0.114567
-48.916480 90.650189 11.495736 -0.169454
-46.935056 90.650189 11.541767 -0.010906
-44.953632 90.650189 11.394672 0.071388
-42.972208 90.650189 11.654540 0.058522
-40.990784 90.650189 11.320707 -0.086054
-39.009360 90.650189 11.211574 0.003354
-37.027936 90.650189 11.289477 -0.113583
-35.046512 90.650189 11.326955 0.099081
-33.065088 90.650189 11.295600 0.068203
-31.083664 90.650189 11.505506 0.051895
-29.102240 90.650189 11.286679 -0.078926
-27.120816 90.650189 11.206628 -0.270811
-25.139392 90.650189 11.181972 -0.124895
-23.157968 90.650189 11.270902 -0.163349
-21.176544 90.650189 11.308767 -0.128093
-19.195120 90.650189 11.257863 -0.270645
-17.213696 90.650189 11.326747 -0.291059
-15.232272 90.650189 11.332824 -0.354684
-13.250848 90.650189 0.000000 0.000000
-11.269424 90.650189 0.000000 0.000000
-9.288001 90.650189 0.000000 0.000000
-7.306577 90.650189 0.000000 0.000000
-5.325153 90.650189 0.000000 0.000000
-3.343729 90.650189 0.000000 0.000000
-1.362305 90.650189 11.096133 -0.193677
0.619119 90.650189 11.093118 -0.224818
2.600543 90.650189 11.075068 0.037644
4.581967 90.650189 10.989472 -0.106721
6.563391 90.650189 11.182051 0.008116
8.544815 90.650189 10.952952 -0.044912
10.526239 90.650189 11.128459 -0.130957
12.507663 90.650189 11.172194 -0.140806
14.489087 90.650189 11.159946 -0.122979
16.470511 90.650189 11.000975 -0.206603
18.451935 90.650189 10.966742 -0.276637
20.433359 90.650189 11.077577 -0.108152
22.414783 90.650189 11.148952 -0.136898
24.396207 90.650189 11.059676 -0.235694
26.377631 90.650189 10.949990 -0.144706
28.359055 90.650189 10.928272 -0.052099
30.340479 90.650189 10.928763 0.142728
32.321903 90.650189 11.060216 0.281141
34.303327 90.650189 10.933184 0.024431
36.284751 90.650189 10.986236 0.084654
38.266175 90.650189 11.131639 0.074886
40.247599 90.650189 11.050408 0.006960
42.229023 90.650189 10.937400 0.215814
44.210447 90.650189 10.960861 0.172159
46.191871 90.650189 10.994224 0.044210
48.173295 90.650189 11.045477 -0.007738
50.154719 90.650189 11.059112 0.017397
52.136143 90.650189 10.906204 -0.180523
54.117567 90.650189 11.057652 -0.146353
56.098991 90.650189 10.982738 -0.313095
58.080415 90.650189 10.970593 -0.013584
60.061839 90.650189 10.972437 -0.177188
62.043263 90.650189 10.894396 -0.139859
64.024687 90.650189 10.985874 0.048236
66.006110 90.650189 10.924056 0.106650
67.987534 90.650189 0.000000 0.000000
-132.136287 88.668765 1.991140 14.208527
-130.154863 88.668765 15.229678 -2.198768
-128.173439 88.668765 10.847519 0.506461
-126.192015 88.668765 11.011389 0.512287
-124.210591 88.668765 11.034105 0.362615
-122.229167 88.668765 11.151246 0.505741
-120.247743 88.668765 11.132795 0.433954
-118.266319 88.668765 11.062407 0.377732
-116.284895 88.668765 10.992792 0.378197
-114.303471 88.668765 11.210800 0.307072
-112.322047 88.668765 0.000000 0.000000
-110.340623 88.668765 0.000000 0.000000
-108.359199 88.668765 0.000000 0.000000
-106.377775 88.668765 0.000000 0.000000
-104.396351 88.668765 0.000000 0.000000
-102.414927 88.668765 0.000000 0.000000
-100.433503 88.668765 0.000000 0.000000
-98.452079 88.668765 0.000000 0.000000
-96.470655 88.668765 0.000000 0.000000
-94.489231 88.668765 0.000000 0.000000
-92.507807 88.668765 0.000000 0.000000
-90.526383 88.668765 0.000000 0.000000
-88.544959 88.668765 11.381675 0.444899
-86.563536 88.668765 11.468740 0.390929
-84.582112 88.668765 11.500759 0.239197
-82.600688 88.668765 11.323079 0.342009
-80.619264 88.668765 11.290768 0.339611
-78.637840 88.668765 11.547918 0.108567
-76.656416 88.668765 11.464442 0.158258
-74.674992 88.668765 11.374552 0.338405
-72.693568 88.668765 11.267873 0.439495
-70.712144 88.668765 11.437336 0.317173
-68.730720 88.668765 11.647738 0.137755
-66.749296 88.668765 11.465102 0.138647
-64.767872 88.668765 11.645017 0.065069
-62.786448 88.668765 11.511258 0.053152
-60.805024 88.668765 11.518733 0.095226
-58.823600 88.668765 11.590546 0.160054
-56.842176 88.668765 11.460417 0.097341
-54.860752 88.668765 11.591835 0.033592
-52.879328 88.668765 11.559490 0.102583
-50.897904 88.668765 11.303732 -0.010588
-48.916480 88.668765 11.608801 -0.099665
-46.935056 88.668765 11.412738 0.088304
-44.953632 88.668765 11.434953 0.005188
-42.972208 88.668765 11.607453 0.047031
-40.990784 88.668765 11.361400 -0.172943
-39.009360 88.668765 11.224744 0.093758
-37.027936 88.668765 11.242150 0.026755
-35.046512 88.668765 11.217243 -0.025207
-33.065088 88.668765 11.230333 -0.041032
-31.083664 88.668765 11.282120 -0.010109
-29.102240 88.668765 11.120546 0.030024
-27.120816 88.668765 11.033436 -0.194762
-25.139392 88.668765 11.236161 -0.085357
-23.157968 88.668765 11.142793 -0.031269
-21.176544 88.668765 11.103168 -0.038236
-19.195120 88.668765 11.313893 -0.249500
-17.213696 88.668765 11.071354 -0.442385
-15.232272 88.668765 11.116876 -0.240261
-13.250848 88.668765 0.000000 0.000000
-11.269424 88.668765 0.000000 0.000000
-9.288001 88.668765 0.000000 0.000000
-7.306577 88.668765 0.000000 0.000000
-5.325153 88.668765 0.000000 0.000000
-3.343729 88.668765 0.000000 0.000000
-1.362305 88.668765 11.063814 -0.219816
0.619119 88.668765 11.141359 -0.178753
2.600543 88.668765 11.160959 -0.006505
4.581967 88.668765 10.908038 -0.131668
6.563391 88.668765 11.170720 -0.086316
8.544815 88.668765 11.016287 -0.210929
10.526239 88.668765 11.128536 -0.154077
12.507663 88.668765 11.068242 -0.131622
14.489087 88.668765 11.109424 0.144207
16.470511 88.668765 10.963861 -0.022845
18.451935 88.668765 10.917838 -0.330531
20.433359 88.668765 11.083419 -0.221320
22.414783 88.668765 11.129375 -0.160150
24.396207 88.668765 11.076027 -0.074870
26.377631 88.668765 11.109968 -0.081328
28.359055 88.668765 10.994310 0.048690
30.340479 88.668765 11.022820 0.090423
32.321903 88.668765 11.105010 0.050031
34.303327 88.668765 10.909332 -0.158454
36.284751 88.668765 10.997829 -0.038915
38.266175 88.668765 11.060019 0.021930
40.247599 88.668765 11.053231 -0.163429
42.229023 88.668765 10.941591 -0.104374
44.210447 88.668765 10.973191 0.162651
46.191871 88.668765 11.033163 0.170937
48.173295 88.668765 10.870368 0.096886
50.154719 88.668765 10.900687 0.083223
52.136143 88.668765 11.009379 0.028806
54.117567 88.668765 11.068828 -0.154602
56.098991 88.668765 10.989636 -0.162851
58.080415 88.668765 10.863374 0.013935
60.061839 88.668765 11.015776 0.022231
62.043263 88.668765 10.734569 -0.126326
64.024687 88.668765 10.788789 -0.078756
66.006110 88.668765 10.983247 0.191002
67.987534 88.668765 0.000000 0.000000
-132.136287 86.687341 3.272366 -3.518399
-130.154863 86.687341 11.584778 0.921072
-128.173439 86.687341 11.220692 0.467843
-126.192015 86.687341 11.008619 0.221231
-124.210591 86.687341 11.028331 0.528386
-122.229167 86.687341 10.975855 0.603634
-120.247743 86.687341 11.132482 0.367254
-118.266319 86.687341 11.137520 0.489513
-116.284895 86.687341 11.333182 0.401950
-114.303471 86.687341 11.420479 0.336996
-112.322047 86.687341 0.000000 0.000000
-110.340623 86.687341 0.000000 0.000000
-108.359199 86.687341 0.000000 0.000000
-106.377775 86.687341 0.000000 0.000000
-104.396351 86.687341 0.000000 0.000000
-102.414927 86.687341 0.000000 0.000000
-100.433503 86.687341 0.000000 0.000000
-98.452079 86.687341 0.000000 0.000000
-96.470655 86.687341 0.000000 0.000000
-94.489231 86.687341 0.000000 0.000000
-92.507807 86.687341 0.000000 0.000000
-90.526383 86.687341 0.000000 0.000000
-88.544959 86.687341 11.583793 0.490825
-86.563536 86.687341 11.388538 0.282003
-84.582112 86.687341 11.461805 0.313773
-82.600688 86.687341 11.461986 0.270302
-80.619264 86.687341 11.546402 0.350547
-78.637840 86.687341 11.607357 0.184694
-76.656416 86.687341 11.490882 0.207490
-74.674992 86.687341 11.436280 0.376394
-72.693568 86.687341 11.456399 0.431919
-70.712144 86.687341 11.499084 0.366630
-68.730720 86.687341 11.473772 0.257729
-66.749296 86.687341 11.480757 0.146927
-64.767872 86.687341 11.627705 0.027222
-62.786448 86.687341 11.486616 0.230731
-60.805024 86.687341 11.522830 0.137105
-58.823600 86.687341 11.619382 -0.005979
-56.842176 86.687341 11.569757 -0.022618
-54.860752 86.687341 11.544580 -0.108055
-52.879328 86.687341 11.408442 0.088963
-50.897904 86.687341 11.573775 -0.172445
-48.916480 86.687341 11.583185 -0.035699
-46.935056 86.687341 11.240061 0.176080
-44.953632 86.687341 11.314202 -0.015871
-42.972208 86.687341 11.423945 -0.052409
-40.990784 86.687341 11.518219 -0.057344
-39.009360 86.687341 11.391221 0.170306
-37.027936 86.687341 11.477698 0.051013
-35.046512 86.687341 11.186026 -0.129951
-33.065088 86.687341 11.208836 -0.146196
-31.083664 86.687341 11.295969 -0.160221
-29.102240 86.687341 11.296908 -0.047866
-27.120816 86.687341 11.014255 -0.145599
-25.139392 86.687341 11.298704 -0.018346
-23.157968 86.687341 11.166852 -0.169142
-21.176544 86.687341 11.263792 -0.196362
-19.195120 86.687341 11.303939 0.062382
-17.213696 86.687341 11.090466 -0.175296
-15.232272 86.687341 11.095234 -0.114477
-13.250848 86.687341 0.000000 0.000000
-11.269424 86.687341 0.000000 0.000000
-9.288001 86.687341 0.000000 0.000000
-7.306577 86.687341 0.000000 0.000000
-5.325153 86.687341 0.000000 0.000000
-3.343729 86.687341 0.000000 0.000000
-1.362305 86.687341 11.072725 -0.121095
0.619119 86.687341 11.171555 -0.135067
2.600543 86.687341 11.188797 -0.246933
4.581967 86.687341 11.017788 -0.283438
6.563391 86.687341 11.238115 -0.274305
8.544815 86.687341 10.932384 -0.171942
10.526239 86.687341 11.091841 -0.152327
12.507663 86.687341 11.025313 -0.086217
14.489087 86.687341 11.152430 -0.137150
16.470511 86.687341 11.049109 0.090318
18.451935 86.687341 11.052812 -0.073359
20.433359 86.687341 11.055716 -0.215608
22.414783 86.687341 10.945972 0.050539
24.396207 86.687341 10.980157 -0.031633
26.377631 86.687341 10.970155 -0.091035
28.359055 86.687341 10.987545 -0.018019
30.340479 86.687341 11.059647 -0.159106
32.321903 86.687341 11.132530 0.012557
34.303327 86.687341 11.030485 -0.060511
36.284751 86.687341 10.898491 0.125928
38.266175 86.687341 10.793137 -0.030070
40.247599 86.687341 10.934209 -0.227663
42.229023 86.687341 10.822643 -0.237404
44.210447 86.687341 10.916700 -0.119356
46.191871 86.687341 11.100987 0.207085
48.173295 86.687341 10.880963 0.161951
50.154719 86.687341 10.725274 0.104762
52.136143 86.687341 11.014505 0.090459
54.117567 86.687341 11.068329 -0.258997
56.098991 86.687341 10.941099 0.062060
58.080415 86.687341 10.919366 -0.017698
60.061839 86.687341 10.916347 0.042296
62.043263 86.687341 10.868368 0.110011
64.024687 86.687341 10.785830 -0.334721
66.006110 86.687341 11.017668 -0.118251
67.987534 86.687341 0.000000 0.000000
-132.136287 84.705917 -1.065792 9.174677
-130.154863 84.705917 1.029087 16.734856
-128.173439 84.705917 11.299498 0.449660
-126.192015 84.705917 10.989202 0.558061
-124.210591 84.705917 11.145994 0.474261
-122.229167 84.705917 10.682751 0.729780
-120.247743 84.705917 11.085808 0.525985
-118.266319 84.705917 11.185900 0.578482
-116.284895 84.705917 11.223567 0.369845
-114.303471 84.705917 11.256127 0.509458
-112.322047 84.705917 0.000000 0.000000
-110.340623 84.705917 0.000000 0.000000
-108.359199 84.705917 0.000000 0.000000
-106.377775 84.705917 0.000000 0.000000
-104.396351 84.705917 0.000000 0.000000
-102.414927 84.705917 0.000000 0.000000
-100.433503 84.705917 0.000000 0.000000