TITLE = "B00014"
VARIABLES = "position", "position(2)", "Vx", "Vy"
ZONE T="Frame 0", I=102, J=78
-132.136287 98.575885 0.000000 0.000000
-130.154863 98.575885 11.206285 0.088434
-128.173439 98.575885 11.409975 0.379519
-126.192015 98.575885 10.893105 0.337242
-124.210591 98.575885 11.217819 0.268165
-122.229167 98.575885 11.197691 0.324260
-120.247743 98.575885 11.498096 0.347300
-118.266319 98.575885 11.460966 0.295169
-116.284895 98.575885 11.300278 0.358210
-114.303471 98.575885 0.000000 0.000000
-112.322047 98.575885 0.000000 0.000000
-110.340623 98.575885 0.000000 0.000000
-108.359199 98.575885 0.000000 0.000000
-106.377775 98.575885 0.000000 0.000000
-104.396351 98.575885 0.000000 0.000000
-102.414927 98.575885 0.000000 0.000000
-100.433503 98.575885 0.000000 0.000000
-98.452079 98.575885 0.000000 0.000000
-96.470655 98.575885 0.000000 0.000000
-94.489231 98.575885 0.000000 0.000000
-92.507807 98.575885 0.000000 0.000000
-90.526383 98.575885 0.000000 0.000000
-88.544959 98.575885 0.000000 0.000000
-86.563536 98.575885 11.508214 0.315169
-84.582112 98.575885 11.438725 0.327617
-82.600688 98.575885 11.580411 0.208303
-80.619264 98.575885 11.443781 0.106084
-78.637840 98.575885 11.421029 0.333125
-76.656416 98.575885 11.403461 0.117053
-74.674992 98.575885 11.568943 0.257384
-72.693568 98.575885 11.535667 0.381818
-70.712144 98.575885 11.420281 0.178020
-68.730720 98.575885 11.534852 0.156660
-66.749296 98.575885 11.352370 0.234349
-64.767872 98.575885 11.497248 0.212552
-62.786448 98.575885 11.594371 0.150723
-60.805024 98.575885 11.690843 -0.043135
-58.823600 98.575885 11.246590 -0.061797
-56.842176 98.575885 11.630973 -0.026939
-54.860752 98.575885 11.466115 0.079141
-52.879328 98.575885 11.429296 -0.030759
-50.897904 98.575885 11.478436 0.107696
-48.916480 98.575885 11.307280 0.024894
-46.935056 98.575885 11.352754 -0.100312
-44.953632 98.575885 11.278118 -0.327706
-42.972208 98.575885 11.258087 -0.168085
-40.990784 98.575885 11.357013 -0.040721
-39.009360 98.575885 11.236744 0.342320
-37.027936 98.575885 11.225040 -0.039257
-35.046512 98.575885 11.456618 -0.147154
-33.065088 98.575885 11.685560 -0.222114
-31.083664 98.575885 11.285171 -0.011598
-29.102240 98.575885 11.205963 -0.101618
-27.120816 98.575885 11.227465 -0.217390
-25.139392 98.575885 11.390363 0.002261
-23.157968 98.575885 11.332829 -0.172239
-21.176544 98.575885 11.169274 -0.250503
-19.195120 98.575885 11.229297 -0.340430
-17.213696 98.575885 11.490805 -0.008414
-15.232272 98.575885 0.000000 0.000000
-13.250848 98.575885 0.000000 0.000000
-11.269424 98.575885 0.000000 0.000000
-9.288001 98.575885 0.000000 0.000000
-7.306577 98.575885 0.000000 0.000000
-5.325153 98.575885 0.000000 0.000000
-3.343729 98.575885 0.000000 0.000000
-1.362305 98.575885 11.089828 -0.153035
0.619119 98.575885 11.027619 0.128708
2.600543 98.575885 11.077476 -0.078758
4.581967 98.575885 11.086993 0.145386
6.563391 98.575885 11.165304 0.033579
8.544815 98.575885 11.165010 -0.023558
10.526239 98.575885 11.271585 -0.234455
12.507663 98.575885 11.179112 -0.113274
14.489087 98.575885 11.064412 -0.065565
16.470511 98.575885 11.013462 0.158713
18.451935 98.575885 11.050997 -0.113360
20.433359 98.575885 11.252842 -0.186880
22.414783 98.575885 11.111860 -0.175059
24.396207 98.575885 11.102575 0.042914
26.377631 98.575885 11.126830 -0.027797
28.359055 98.575885 11.005033 -0.213182
30.340479 98.575885 11.056803 0.025635
32.321903 98.575885 11.043436 0.105742
34.303327 98.575885 10.975945 0.310863
36.284751 98.575885 11.092860 -0.090151
38.266175 98.575885 11.073510 0.071738
40.247599 98.575885 11.043698 0.016909
42.229023 98.575885 10.843615 0.052528
44.210447 98.575885 11.121861 -0.051353
46.191871 98.575885 11.198275 -0.129994
48.173295 98.575885 10.970562 0.150958
50.154719 98.575885 11.006998 0.031767
52.136143 98.575885 11.318769 0.052676
54.117567 98.575885 11.185982 -0.114438
56.098991 98.575885 11.079120 0.159441
58.080415 98.575885 10.929456 0.031424
60.061839 98.575885 10.940446 -0.211318
62.043263 98.575885 10.901863 -0.053412
64.024687 98.575885 10.885512 0.031961
66.006110 98.575885 10.931803 0.006510
67.987534 98.575885 0.000000 0.000000
-132.136287 96.594461 7.577226 14.736056
-130.154863 96.594461 11.128975 0.331006
-128.173439 96.594461 11.497732 0.376146
-126.192015 96.594461 11.129004 0.171669
-124.210591 96.594461 11.095319 0.279452
-122.229167 96.594461 10.981124 0.362713
-120.247743 96.594461 11.347861 0.249995
-118.266319 96.594461 11.421880 0.158264
-116.284895 96.594461 11.140141 0.283802
-114.303471 96.594461 0.000000 0.000000
-112.322047 96.594461 0.000000 0.000000
-110.340623 96.594461 0.000000 0.000000
-108.359199 96.594461 0.000000 0.000000
-106.377775 96.594461 0.000000 0.000000
-104.396351 96.594461 0.000000 0.000000
-102.414927 96.594461 0.000000 0.000000
-100.433503 96.594461 0.000000 0.000000
-98.452079 96.594461 0.000000 0.000000
-96.470655 96.594461 0.000000 0.000000
-94.489231 96.594461 0.000000 0.000000
-92.507807 96.594461 0.000000 0.000000
-90.526383 96.594461 0.000000 0.000000
-88.544959 96.594461 11.329076 0.360696
-86.563536 96.594461 11.540140 0.318560
-84.582112 96.594461 11.226725 0.262432
-82.600688 96.594461 11.464553 0.182459
-80.619264 96.594461 11.440578 0.142665
-78.637840 96.594461 11.335605 0.265594
-76.656416 96.594461 11.399190 0.220034
-74.674992 96.594461 11.538123 0.278295
-72.693568 96.594461 11.553344 0.347958
-70.712144 96.594461 11.515137 0.289261
-68.730720 96.594461 11.490328 0.299766
-66.749296 96.594461 11.350096 0.287367
-64.767872 96.594461 11.519663 0.335866
-62.786448 96.594461 11.508921 0.159275
-60.805024 96.594461 11.658112 0.084538
-58.823600 96.594461 11.241121 -0.021110
-56.842176 96.594461 11.441858 -0.057377
-54.860752 96.594461 11.660423 0.046760
-52.879328 96.594461 11.504690 -0.109607
-50.897904 96.594461 11.555725 0.104835
-48.916480 96.594461 11.418014 0.067735
-46.935056 96.594461 11.437773 -0.064834
-44.953632 96.594461 11.239902 -0.178892
-42.972208 96.594461 11.339174 -0.146152
-40.990784 96.594461 11.361158 0.047712
-39.009360 96.594461 11.191892 0.166269
-37.027936 96.594461 11.288972 0.192090
-35.046512 96.594461 11.441379 0.054699
-33.065088 96.594461 11.709906 -0.110021
-31.083664 96.594461 11.528745 -0.158317
-29.102240 96.594461 11.082301 0.081021
-27.120816 96.594461 11.404328 -0.115534
-25.139392 96.594461 11.466510 0.098790
-23.157968 96.594461 11.238906 -0.016132
-21.176544 96.594461 11.135731 -0.191435
-19.195120 96.594461 11.196542 -0.505332
-17.213696 96.594461 11.436326 -0.053456
-15.232272 96.594461 0.000000 0.000000
-13.250848 96.594461 0.000000 0.000000
-11.269424 96.594461 0.000000 0.000000
-9.288001 96.594461 0.000000 0.000000
-7.306577 96.594461 0.000000 0.000000
-5.325153 96.594461 0.000000 0.000000
-3.343729 96.594461 0.000000 0.000000
-1.362305 96.594461 11.232849 -0.008750
0.619119 96.594461 11.142321 0.107827
2.600543 96.594461 11.161207 -0.097689
4.581967 96.594461 11.027053 -0.021939
6.563391 96.594461 11.028058 0.058924
8.544815 96.594461 11.045998 -0.096220
10.526239 96.594461 11.129380 -0.238970
12.507663 96.594461 11.009174 -0.055064
14.489087 96.594461 11.074067 0.059839
16.470511 96.594461 11.082137 0.110408
18.451935 96.594461 11.140040 0.119295
20.433359 96.594461 11.101810 0.009354
22.414783 96.594461 11.079021 -0.051403
24.396207 96.594461 11.103031 0.072742
26.377631 96.594461 11.157295 0.003368
28.359055 96.594461 11.033549 -0.046315
30.340479 96.594461 11.126726 -0.153996
32.321903 96.594461 11.051021 -0.109839
34.303327 96.594461 10.949706 0.084833
36.284751 96.594461 11.050018 0.044234
38.266175 96.594461 11.046297 0.048862
40.247599 96.594461 11.072904 0.051378
42.229023 96.594461 11.003462 0.157879
44.210447 96.594461 11.133897 -0.052266
46.191871 96.594461 11.134644 0.051597
48.173295 96.594461 11.031091 -0.056809
50.154719 96.594461 10.842506 -0.065245
52.136143 96.594461 10.957178 0.288191
54.117567 96.594461 11.022869 -0.058528
56.098991 96.594461 11.099399 0.141485
58.080415 96.594461 10.964327 0.018483
60.061839 96.594461 10.949354 -0.167424
62.043263 96.594461 10.875280 -0.064420
64.024687 96.594461 10.836948 -0.007074
66.006110 96.594461 10.925809 0.183307
67.987534 96.594461 0.000000 0.000000
-132.136287 94.613037 10.921329 0.899909
-130.154863 94.613037 -7.053692 5.253449
-128.173439 94.613037 11.328729 0.142468
-126.192015 94.613037 11.069025 -0.363921
-124.210591 94.613037 10.751071 0.468918
-122.229167 94.613037 10.945910 0.517796
-120.247743 94.613037 11.307234 0.379171
-118.266319 94.613037 11.222743 0.279779
-116.284895 94.613037 11.162547 0.307000
-114.303471 94.613037 0.000000 0.000000
-112.322047 94.613037 0.000000 0.000000
-110.340623 94.613037 0.000000 0.000000
-108.359199 94.613037 0.000000 0.000000
-106.377775 94.613037 0.000000 0.000000
-104.396351 94.613037 0.000000 0.000000
-102.414927 94.613037 0.000000 0.000000
-100.433503 94.613037 0.000000 0.000000
-98.452079 94.613037 0.000000 0.000000
-96.470655 94.613037 0.000000 0.000000
-94.489231 94.613037 0.000000 0.000000
-92.507807 94.613037 0.000000 0.000000
-90.526383 94.613037 0.000000 0.000000
-88.544959 94.613037 11.435054 0.396812
-86.563536 94.613037 11.582043 0.323690
-84.582112 94.613037 11.362394 0.287003
-82.600688 94.613037 11.340495 0.224526
-80.619264 94.613037 11.474432 0.247806
-78.637840 94.613037 11.436064 0.190003
-76.656416 94.613037 11.386310 0.197244
-74.674992 94.613037 11.393331 0.247229
-72.693568 94.613037 11.568774 0.251725
-70.712144 94.613037 11.575371 0.378099
-68.730720 94.613037 11.441033 0.265117
-66.749296 94.613037 11.320209 0.082539
-64.767872 94.613037 11.451759 -0.029916
-62.786448 94.613037 11.441010 0.079121
-60.805024 94.613037 11.449471 -0.140222
-58.823600 94.613037 11.388057 -0.105530
-56.842176 94.613037 11.549897 -0.068043
-54.860752 94.613037 11.705550 -0.039439
-52.879328 94.613037 11.324889 -0.076982
-50.897904 94.613037 11.344012 -0.146447
-48.916480 94.613037 11.442998 0.140740
-46.935056 94.613037 11.475568 0.040098
-44.953632 94.613037 11.203697 0.125235
-42.972208 94.613037 11.210769 -0.021996
-40.990784 94.613037 11.409028 0.072815
-39.009360 94.613037 11.466180 0.115300
-37.027936 94.613037 11.524219 0.249149
-35.046512 94.613037 11.555643 0.054817
-33.065088 94.613037 11.602105 0.001966
-31.083664 94.613037 11.471121 -0.092747
-29.102240 94.613037 11.113887 0.105825
-27.120816 94.613037 11.271078 0.069511
-25.139392 94.613037 11.405324 -0.010217
-23.157968 94.613037 11.099973 0.096954
-21.176544 94.613037 11.190263 -0.146876
-19.195120 94.613037 11.309509 -0.200580
-17.213696 94.613037 11.333600 -0.209673
-15.232272 94.613037 11.102575 -0.047424
-13.250848 94.613037 0.000000 0.000000
-11.269424 94.613037 0.000000 0.000000
-9.288001 94.613037 0.000000 0.000000
-7.306577 94.613037 0.000000 0.000000
-5.325153 94.613037 0.000000 0.000000
-3.343729 94.613037 0.000000 0.000000
-1.362305 94.613037 11.261823 -0.171298
0.619119 94.613037 11.215337 0.064004
2.600543 94.613037 11.212230 0.015098
4.581967 94.613037 11.066041 -0.059291
6.563391 94.613037 10.989738 0.107134
8.544815 94.613037 10.997121 -0.265517
10.526239 94.613037 11.078025 -0.204807
12.507663 94.613037 10.806458 0.267053
14.489087 94.613037 11.120835 -0.041766
16.470511 94.613037 10.998530 -0.059923
18.451935 94.613037 11.073592 0.162735
20.433359 94.613037 11.058808 0.078003
22.414783 94.613037 11.032448 0.015744
24.396207 94.613037 11.090657 -0.056055
26.377631 94.613037 11.065304 -0.024710
28.359055 94.613037 11.017426 -0.016434
30.340479 94.613037 11.118378 -0.326387
32.321903 94.613037 10.926081 -0.172843
34.303327 94.613037 10.847399 -0.013103
36.284751 94.613037 11.108809 0.085678
38.266175 94.613037 11.012307 0.175535
40.247599 94.613037 10.977330 0.164844
42.229023 94.613037 11.041467 0.175568
44.210447 94.613037 11.034951 0.153538
46.191871 94.613037 11.020167 0.023793
48.173295 94.613037 11.108990 -0.055408
50.154719 94.613037 10.901620 -0.025923
52.136143 94.613037 10.734838 0.301057
54.117567 94.613037 10.946450 -0.015203
56.098991 94.613037 10.971171 0.184657
58.080415 94.613037 11.104210 0.040003
60.061839 94.613037 10.962627 0.077521
62.043263 94.613037 10.862653 -0.016596
64.024687 94.613037 11.002483 0.093917
66.006110 94.613037 10.927501 0.193386
67.987534 94.613037 0.000000 0.000000
-132.136287 92.631613 6.454686 -7.186680
-130.154863 92.631613 2.802519 15.166631
-128.173439 92.631613 11.178645 -0.301814
-126.192015 92.631613 11.478038 -0.708826
-124.210591 92.631613 10.848630 0.503651
-122.229167 92.631613 11.114174 0.587312
-120.247743 92.631613 11.315631 0.505970
-118.266319 92.631613 11.143697 0.510476
-116.284895 92.631613 11.055181 0.628277
-114.303471 92.631613 0.000000 0.000000
-112.322047 92.631613 0.000000 0.000000
-110.340623 92.631613 0.000000 0.000000
-108.359199 92.631613 0.000000 0.000000
-106.377775 92.631613 0.000000 0.000000
-104.396351 92.631613 0.000000 0.000000
-102.414927 92.631613 0.000000 0.000000
-100.433503 92.631613 0.000000 0.000000
-98.452079 92.631613 0.000000 0.000000
-96.470655 92.631613 0.000000 0.000000
-94.489231 92.631613 0.000000 0.000000
-92.507807 92.631613 0.000000 0.000000
-90.526383 92.631613 0.000000 0.000000
-88.544959 92.631613 11.500275 0.361718
-86.563536 92.631613 11.399220 0.295282
-84.582112 92.631613 11.473456 0.338081
-82.600688 92.631613 11.366858 0.288413
-80.619264 92.631613 11.508166 0.201179
-78.637840 92.631613 11.539046 0.383141
-76.656416 92.631613 11.449533 0.110125
-74.674992 92.631613 11.499643 0.254359
-72.693568 92.631613 11.410366 0.119664
-70.712144 92.631613 11.513206 0.235850
-68.730720 92.631613 11.428202 0.303323
-66.749296 92.631613 11.208674 -0.096793
-64.767872 92.631613 11.366483 -0.026139
-62.786448 92.631613 11.470742 0.155996
-60.805024 92.631613 11.440125 0.079429
-58.823600 92.631613 11.441716 0.033695
-56.842176 92.631613 11.540536 0.095143
-54.860752 92.631613 11.525486 0.064467
-52.879328 92.631613 11.343737 0.050895
-50.897904 92.631613 11.233968 -0.022328
-48.916480 92.631613 11.512358 0.081660
-46.935056 92.631613 11.389002 0.106079
-44.953632 92.631613 11.327733 0.139500
-42.972208 92.631613 11.372547 0.095090
-40.990784 92.631613 11.537554 -0.186234
-39.009360 92.631613 11.537684 0.098622
-37.027936 92.631613 11.637934 0.043668
-35.046512 92.631613 11.575366 -0.117371
-33.065088 92.631613 11.455886 -0.113508
-31.083664 92.631613 11.375137 -0.219575
-29.102240 92.631613 11.202752 -0.025570
-27.120816 92.631613 11.288073 0.271840
-25.139392 92.631613 11.359329 -0.278228
-23.157968 92.631613 11.242717 -0.139001
-21.176544 92.631613 11.197062 -0.154614
-19.195120 92.631613 11.097319 -0.052883
-17.213696 92.631613 11.210933 -0.204371
-15.232272 92.631613 11.122800 -0.155476
-13.250848 92.631613 0.000000 0.000000
-11.269424 92.631613 0.000000 0.000000
-9.288001 92.631613 0.000000 0.000000
-7.306577 92.631613 0.000000 0.000000
-5.325153 92.631613 0.000000 0.000000
-3.343729 92.631613 0.000000 0.000000
-1.362305 92.631613 11.124400 -0.082929
0.619119 92.631613 11.086029 -0.167974
2.600543 92.631613 11.006913 0.059968
4.581967 92.631613 10.983054 0.167836
6.563391 92.631613 10.951914 0.051462
8.544815 92.631613 10.904263 -0.270207
10.526239 92.631613 11.154082 -0.121184
12.507663 92.631613 10.956681 0.193192
14.489087 92.631613 11.061725 -0.027771
16.470511 92.631613 10.924027 -0.119787
18.451935 92.631613 10.903967 -0.176786
20.433359 92.631613 11.094634 -0.213082
22.414783 92.631613 11.136659 -0.039521
24.396207 92.631613 11.197077 -0.109086
26.377631 92.631613 11.106618 -0.077143
28.359055 92.631613 11.044407 -0.051990
30.340479 92.631613 10.961201 -0.251155
32.321903 92.631613 10.902283 0.069754
34.303327 92.631613 10.936930 0.125775
36.284751 92.631613 11.161056 -0.054582
38.266175 92.631613 11.043713 0.011557
40.247599 92.631613 10.834839 0.263232
42.229023 92.631613 10.958248 0.034986
44.210447 92.631613 10.996754 0.203550
46.191871 92.631613 10.961350 0.113099
48.173295 92.631613 11.083376 0.163023
50.154719 92.631613 11.038013 -0.041468
52.136143 92.631613 11.004431 -0.088774
54.117567 92.631613 11.056933 -0.124984
56.098991 92.631613 10.941497 0.170159
58.080415 92.631613 10.955693 -0.179585
60.061839 92.631613 10.939426 0.087834
62.043263 92.631613 10.903705 0.056166
64.024687 92.631613 10.981856 0.141556
66.006110 92.631613 10.984163 0.050946
67.987534 92.631613 0.000000 0.000000
-132.136287 90.650189 4.789065 -12.005970
-130.154863 90.650189 -14.090988 -5.682946
-128.173439 90.650189 11.051373 0.284395
-126.192015 90.650189 10.906684 0.658435
-124.210591 90.650189 11.002151 0.385643
-122.229167 90.650189 10.949277 0.360794
-120.247743 90.650189 11.075383 0.397855
-118.266319 90.650189 11.131323 0.505703
-116.284895 90.650189 11.213970 0.684008
-114.303471 90.650189 11.392821 0.697022
-112.322047 90.650189 0.000000 0.000000
-110.340623 90.650189 0.000000 0.000000
-108.359199 90.650189 0.000000 0.000000
-106.377775 90.650189 0.000000 0.000000
-104.396351 90.650189 0.000000 0.000000
-102.414927 90.650189 0.000000 0.000000
-100.433503 90.650189 0.000000 0.000000
-98.452079 90.650189 0.000000 0.000000
-96.470655 90.650189 0.000000 0.000000
-94.489231 90.650189 0.000000 0.000000
-92.507807 90.650189 0.000000 0.000000
-90.526383 90.650189 0.000000 0.000000
-88.544959 90.650189 11.478522 0.434835
-86.563536 90.650189 11.087249 0.359227
-84.582112 90.650189 11.491914 0.369243
-82.600688 90.650189 11.498633 0.432097
-80.619264 90.650189 11.334908 0.387045
-78.637840 90.650189 11.460868 0.390360
-76.656416 90.650189 11.418681 0.427678
-74.674992 90.650189 11.471962 0.208951
-72.693568 90.650189 11.442183 0.035639
-70.712144 90.650189 11.460781 0.344428
-68.730720 90.650189 11.403188 0.299770
-66.749296 90.650189 11.304317 0.133427
-64.767872 90.650189 11.525221 -0.024912
-62.786448 90.650189 11.499866 0.150745
-60.805024 90.650189 11.556115 0.033191
-58.823600 90.650189 11.455056 0.143419
-56.842176 90.650189 11.203849 0.110766
-54.860752 90.650189 11.428088 0.065209
-52.879328 90.650189 11.406033 0.159602
-50.897904 90.650189 11.443372 0.233682
-48.916480 90.650189 11.557463 0.102973
-46.935056 90.650189 11.363646 0.050329
-44.953632 90.650189 11.426603 0.105528
-42.972208 90.650189 11.469349 -0.101483
-40.990784 90.650189 11.355883 -0.251617
-39.009360 90.650189 11.389565 -0.169249
-37.027936 90.650189 11.250533 -0.089427
-35.046512 90.650189 11.164813 -0.113560
-33.065088 90.650189 11.458737 -0.035564
-31.083664 90.650189 11.397967 -0.216082
-29.102240 90.650189 11.290941 -0.144790
-27.120816 90.650189 11.192019 0.064224
-25.139392 90.650189 11.191875 -0.199500
-23.157968 90.650189 11.311276 -0.160904
-21.176544 90.650189 11.224785 -0.090088
-19.195120 90.650189 11.000263 -0.139407
-17.213696 90.650189 11.086632 -0.150703
-15.232272 90.650189 11.557297 -0.268621
-13.250848 90.650189 0.000000 0.000000
-11.269424 90.650189 0.000000 0.000000
-9.288001 90.650189 0.000000 0.000000
-7.306577 90.650189 0.000000 0.000000
-5.325153 90.650189 0.000000 0.000000
-3.343729 90.650189 0.000000 0.000000
-1.362305 90.650189 11.078175 0.021949
0.619119 90.650189 11.157871 -0.121562
2.600543 90.650189 11.030992 -0.110853
4.581967 90.650189 11.020160 0.079576
6.563391 90.650189 11.036297 -0.126357
8.544815 90.650189 10.962572 -0.181070
10.526239 90.650189 11.059651 -0.095488
12.507663 90.650189 11.129071 0.108434
14.489087 90.650189 10.984421 0.043804
16.470511 90.650189 10.979759 -0.016652
18.451935 90.650189 10.946804 -0.169732
20.433359 90.650189 11.055752 -0.217719
22.414783 90.650189 11.054236 0.008405
24.396207 90.650189 11.027185 -0.176559
26.377631 90.650189 11.012006 -0.203250
28.359055 90.650189 11.048261 -0.119508
30.340479 90.650189 10.941483 -0.189700
32.321903 90.650189 10.910707 0.124068
34.303327 90.650189 10.961591 0.065405
36.284751 90.650189 11.099127 -0.106057
38.266175 90.650189 11.137505 -0.102571
40.247599 90.650189 10.898005 0.258785
42.229023 90.650189 10.936474 -0.039681
44.210447 90.650189 10.885389 0.078752
46.191871 90.650189 10.921389 0.154880
48.173295 90.650189 11.101202 0.025721
50.154719 90.650189 11.056760 -0.014480
52.136143 90.650189 10.978986 -0.147510
54.117567 90.650189 11.064458 -0.164163
56.098991 90.650189 10.969164 0.006862
58.080415 90.650189 10.902434 -0.180938
60.061839 90.650189 10.946346 -0.058292
62.043263 90.650189 10.935669 -0.115737
64.024687 90.650189 10.773650 -0.097406
66.006110 90.650189 10.862918 -0.016197
67.987534 90.650189 0.000000 0.000000
-132.136287 88.668765 1.215379 -13.632301
-130.154863 88.668765 0.238024 10.144768
-128.173439 88.668765 11.070240 0.317850
-126.192015 88.668765 11.517954 0.781195
-124.210591 88.668765 11.180954 0.351793
-122.229167 88.668765 10.905992 0.426296
-120.247743 88.668765 10.961081 0.551087
-118.266319 88.668765 11.258270 0.445063
-116.284895 88.668765 11.319941 0.558745
-114.303471 88.668765 11.365140 0.697615
-112.322047 88.668765 0.000000 0.000000
-110.340623 88.668765 0.000000 0.000000
-108.359199 88.668765 0.000000 0.000000
-106.377775 88.668765 0.000000 0.000000
-104.396351 88.668765 0.000000 0.000000
-102.414927 88.668765 0.000000 0.000000
-100.433503 88.668765 0.000000 0.000000
-98.452079 88.668765 0.000000 0.000000
-96.470655 88.668765 0.000000 0.000000
-94.489231 88.668765 0.000000 0.000000
-92.507807 88.668765 0.000000 0.000000
-90.526383 88.668765 0.000000 0.000000
-88.544959 88.668765 11.665694 0.570148
-86.563536 88.668765 11.273428 0.423233
-84.582112 88.668765 11.493787 0.307730
-82.600688 88.668765 11.287713 0.337641
-80.619264 88.668765 11.420769 0.379612
-78.637840 88.668765 11.591991 0.369525
-76.656416 88.668765 11.485599 0.463116
-74.674992 88.668765 11.590273 0.349247
-72.693568 88.668765 11.572727 0.200143
-70.712144 88.668765 11.487913 0.331475
-68.730720 88.668765 11.320960 0.248200
-66.749296 88.668765 11.406220 0.250575
-64.767872 88.668765 11.686110 0.101843
-62.786448 88.668765 11.514469 -0.020773
-60.805024 88.668765 11.445435 -0.004752
-58.823600 88.668765 11.337333 0.137516
-56.842176 88.668765 11.131725 0.103926
-54.860752 88.668765 11.620787 -0.018212
-52.879328 88.668765 11.494963 0.184086
-50.897904 88.668765 11.489545 0.250806
-48.916480 88.668765 11.548923 -0.014226
-46.935056 88.668765 11.522557 -0.081125
-44.953632 88.668765 11.528983 0.001914
-42.972208 88.668765 11.471569 -0.138764
-40.990784 88.668765 11.378481 -0.136633
-39.009360 88.668765 11.395381 -0.149422
-37.027936 88.668765 11.254211 -0.112364
-35.046512 88.668765 11.119831 -0.085239
-33.065088 88.668765 11.360898 -0.184536
-31.083664 88.668765 11.466330 -0.167106
-29.102240 88.668765 11.421771 -0.090332
-27.120816 88.668765 11.250020 -0.168201
-25.139392 88.668765 11.135745 -0.165592
-23.157968 88.668765 11.249880 -0.026733
-21.176544 88.668765 11.250899 -0.050131
-19.195120 88.668765 11.154907 -0.182346
-17.213696 88.668765 11.076306 -0.216825
-15.232272 88.668765 11.269167 -0.215101
-13.250848 88.668765 0.000000 0.000000
-11.269424 88.668765 0.000000 0.000000
-9.288001 88.668765 0.000000 0.000000
-7.306577 88.668765 0.000000 0.000000
-5.325153 88.668765 0.000000 0.000000
-3.343729 88.668765 0.000000 0.000000
-1.362305 88.668765 11.120570 -0.083779
0.619119 88.668765 11.382055 -0.122944
2.600543 88.668765 11.165252 -0.191134
4.581967 88.668765 11.144574 -0.014047
6.563391 88.668765 11.289321 -0.202310
8.544815 88.668765 11.012452 -0.259012
10.526239 88.668765 10.968899 -0.150447
12.507663 88.668765 11.076900 -0.229355
14.489087 88.668765 10.939265 -0.100248
16.470511 88.668765 11.002584 -0.042186
18.451935 88.668765 10.973310 -0.183254
20.433359 88.668765 11.083949 -0.079113
22.414783 88.668765 10.991517 -0.138190
24.396207 88.668765 10.891306 -0.302754
26.377631 88.668765 10.925228 -0.352889
28.359055 88.668765 10.996506 -0.180767
30.340479 88.668765 11.029355 -0.045214
32.321903 88.668765 10.917253 0.041230
34.303327 88.668765 11.058845 0.141403
36.284751 88.668765 10.975864 -0.077492
38.266175 88.668765 11.136437 -0.062400
40.247599 88.668765 11.040943 -0.101884
42.229023 88.668765 11.098927 0.070644
44.210447 88.668765 10.784653 -0.189415
46.191871 88.668765 10.939467 0.098467
48.173295 88.668765 11.095075 -0.123428
50.154719 88.668765 11.136447 0.052603
52.136143 88.668765 10.993023 -0.103760
54.117567 88.668765 11.033671 -0.183565
56.098991 88.668765 10.946701 -0.053001
58.080415 88.668765 10.958067 0.048988
60.061839 88.668765 10.973787 -0.149164
62.043263 88.668765 10.972989 0.034228
64.024687 88.668765 10.746345 -0.064162
66.006110 88.668765 10.762643 -0.142064
67.987534 88.668765 0.000000 0.000000
-132.136287 86.687341 -2.434341 -11.869813
-130.154863 86.687341 -12.712041 1.127595
-128.173439 86.687341 11.314284 0.254424
-126.192015 86.687341 10.924471 0.448369
-124.210591 86.687341 11.033843 0.496544
-122.229167 86.687341 11.068702 0.549473
-120.247743 86.687341 11.023499 0.537945
-118.266319 86.687341 11.226026 0.473159
-116.284895 86.687341 11.052359 0.594005
-114.303471 86.687341 11.117649 0.614788
-112.322047 86.687341 0.000000 0.000000
-110.340623 86.687341 0.000000 0.000000
-108.359199 86.687341 0.000000 0.000000
-106.377775 86.687341 0.000000 0.000000
-104.396351 86.687341 0.000000 0.000000
-102.414927 86.687341 0.000000 0.000000
-100.433503 86.687341 0.000000 0.000000
-98.452079 86.687341 0.000000 0.000000
-96.470655 86.687341 0.000000 0.000000
-94.489231 86.687341 0.000000 0.000000
-92.507807 86.687341 0.000000 0.000000
-90.526383 86.687341 0.000000 0.000000
-88.544959 86.687341 11.542474 0.508189
-86.563536 86.687341 11.511018 0.310815
-84.582112 86.687341 11.608601 0.389020
-82.600688 86.687341 11.283023 0.298678
-80.619264 86.687341 11.552669 0.219819
-78.637840 86.687341 11.706587 0.387379
-76.656416 86.687341 11.609707 0.393292
-74.674992 86.687341 11.571343 0.297351
-72.693568 86.687341 11.545891 0.244531
-70.712144 86.687341 11.566402 0.298683
-68.730720 86.687341 11.542892 0.245729
-66.749296 86.687341 11.473837 0.281847
-64.767872 86.687341 11.556091 0.100131
-62.786448 86.687341 11.502618 0.062267
-60.805024 86.687341 11.410602 0.061259
-58.823600 86.687341 11.370023 -0.066107
-56.842176 86.687341 11.374716 0.078352
-54.860752 86.687341 11.614340 -0.044922
-52.879328 86.687341 11.521069 0.179363
-50.897904 86.687341 11.384726 0.265118
-48.916480 86.687341 11.305075 -0.050674
-46.935056 86.687341 11.474160 -0.048647
-44.953632 86.687341 11.496353 0.054414
-42.972208 86.687341 11.484148 -0.095828
-40.990784 86.687341 11.418397 0.024745
-39.009360 86.687341 11.501227 -0.074578
-37.027936 86.687341 11.375694 -0.042571
-35.046512 86.687341 11.457816 -0.087894
-33.065088 86.687341 11.295306 -0.178132
-31.083664 86.687341 11.433102 -0.039375
-29.102240 86.687341 11.309637 0.076317
-27.120816 86.687341 11.345427 -0.309709
-25.139392 86.687341 11.293192 -0.302138
-23.157968 86.687341 11.351932 -0.087875
-21.176544 86.687341 11.252275 -0.120319
-19.195120 86.687341 11.221504 -0.279218
-17.213696 86.687341 11.074195 -0.313705
-15.232272 86.687341 11.179626 -0.083997
-13.250848 86.687341 0.000000 0.000000
-11.269424 86.687341 0.000000 0.000000
-9.288001 86.687341 0.000000 0.000000
-7.306577 86.687341 0.000000 0.000000
-5.325153 86.687341 0.000000 0.000000
-3.343729 86.687341 0.000000 0.000000
-1.362305 86.687341 11.197197 -0.121957
0.619119 86.687341 11.249405 -0.229503
2.600543 86.687341 10.924592 -0.076879
4.581967 86.687341 11.019102 -0.005339
6.563391 86.687341 11.190143 -0.034093
8.544815 86.687341 10.994822 -0.207216
10.526239 86.687341 11.011307 0.022091
12.507663 86.687341 11.161282 -0.080631
14.489087 86.687341 11.034583 -0.039224
16.470511 86.687341 11.013060 -0.174642
18.451935 86.687341 11.052665 -0.265684
20.433359 86.687341 11.045482 -0.048927
22.414783 86.687341 11.056995 0.066256
24.396207 86.687341 10.968588 -0.148548
26.377631 86.687341 10.936337 -0.223582
28.359055 86.687341 10.948884 -0.170759
30.340479 86.687341 11.031924 0.070979
32.321903 86.687341 11.036463 0.033761
34.303327 86.687341 11.274946 0.132728
36.284751 86.687341 10.914227 -0.001635
38.266175 86.687341 10.983864 0.026258
40.247599 86.687341 11.026981 0.154242
42.229023 86.687341 11.089968 0.103648
44.210447 86.687341 10.903053 -0.218469
46.191871 86.687341 10.954432 0.005352
48.173295 86.687341 11.099216 0.033334
50.154719 86.687341 11.006463 -0.110379
52.136143 86.687341 11.041489 0.007434
54.117567 86.687341 11.013558 -0.178633
56.098991 86.687341 10.860947 -0.024392
58.080415 86.687341 10.883526 0.005738
60.061839 86.687341 10.964717 0.032802
62.043263 86.687341 11.144222 0.004507
64.024687 86.687341 10.942772 0.118240
66.006110 86.687341 10.848387 -0.028487
67.987534 86.687341 0.000000 0.000000
-132.136287 84.705917 11.432178 0.883602
-130.154863 84.705917 0.313647 16.598749
-128.173439 84.705917 -0.104074 16.911156
-126.192015 84.705917 11.045897 0.361354
-124.210591 84.705917 11.007333 0.585814
-122.229167 84.705917 11.488197 0.527964
-120.247743 84.705917 11.182779 0.305001
-118.266319 84.705917 11.103656 0.680163
-116.284895 84.705917 11.196045 0.614919
-114.303471 84.705917 11.084186 0.524457
-112.322047 84.705917 0.000000 0.000000
-110.340623 84.705917 0.000000 0.000000
-108.359199 84.705917 0.000000 0.000000
-106.377775 84.705917 0.000000 0.000000
-104.396351 84.705917 0.000000 0.000000
-102.414927 84.705917 0.000000 0.000000