TITLE = "B00003"
VARIABLES = "position", "position(2)", "Vx", "Vy"
ZONE T="Frame 0", I=102, J=78
-132.136287 98.575885 0.000000 0.000000
-130.154863 98.575885 11.331722 0.312362
-128.173439 98.575885 10.991953 0.710196
-126.192015 98.575885 11.218328 0.276412
-124.210591 98.575885 10.878915 0.256645
-122.229167 98.575885 11.097762 0.192744
-120.247743 98.575885 11.398418 0.243170
-118.266319 98.575885 11.543541 0.347745
-116.284895 98.575885 11.458629 0.590034
-114.303471 98.575885 0.000000 0.000000
-112.322047 98.575885 0.000000 0.000000
-110.340623 98.575885 0.000000 0.000000
-108.359199 98.575885 0.000000 0.000000
-106.377775 98.575885 0.000000 0.000000
-104.396351 98.575885 0.000000 0.000000
-102.414927 98.575885 0.000000 0.000000
-100.433503 98.575885 0.000000 0.000000
-98.452079 98.575885 0.000000 0.000000
-96.470655 98.575885 0.000000 0.000000
-94.489231 98.575885 0.000000 0.000000
-92.507807 98.575885 0.000000 0.000000
-90.526383 98.575885 0.000000 0.000000
-88.544959 98.575885 0.000000 0.000000
-86.563536 98.575885 11.356006 0.272314
-84.582112 98.575885 11.360382 0.236933
-82.600688 98.575885 11.201224 0.349241
-80.619264 98.575885 11.505286 0.276151
-78.637840 98.575885 11.676618 0.238309
-76.656416 98.575885 11.455146 0.270876
-74.674992 98.575885 11.630621 0.236099
-72.693568 98.575885 11.418893 0.266169
-70.712144 98.575885 11.330174 0.229126
-68.730720 98.575885 11.295057 0.187958
-66.749296 98.575885 11.281563 0.166039
-64.767872 98.575885 11.351647 0.163555
-62.786448 98.575885 11.591090 0.288603
-60.805024 98.575885 11.449992 0.113932
-58.823600 98.575885 11.304729 0.169863
-56.842176 98.575885 11.363000 0.153493
-54.860752 98.575885 11.343773 0.023465
-52.879328 98.575885 11.335253 0.155770
-50.897904 98.575885 11.506973 0.152537
-48.916480 98.575885 11.186004 -0.053910
-46.935056 98.575885 11.527574 -0.080033
-44.953632 98.575885 11.280929 -0.094180
-42.972208 98.575885 11.272522 0.027444
-40.990784 98.575885 11.664588 0.064453
-39.009360 98.575885 11.481227 0.204916
-37.027936 98.575885 11.545400 0.063442
-35.046512 98.575885 11.154437 -0.026125
-33.065088 98.575885 11.347598 -0.084278
-31.083664 98.575885 11.620144 -0.049762
-29.102240 98.575885 11.042276 -0.165040
-27.120816 98.575885 10.926351 -0.132297
-25.139392 98.575885 11.096015 -0.030465
-23.157968 98.575885 11.237968 0.138821
-21.176544 98.575885 11.119746 -0.120987
-19.195120 98.575885 11.438474 -0.255617
-17.213696 98.575885 11.107189 -0.249407
-15.232272 98.575885 0.000000 0.000000
-13.250848 98.575885 0.000000 0.000000
-11.269424 98.575885 0.000000 0.000000
-9.288001 98.575885 0.000000 0.000000
-7.306577 98.575885 0.000000 0.000000
-5.325153 98.575885 0.000000 0.000000
-3.343729 98.575885 0.000000 0.000000
-1.362305 98.575885 11.084045 0.102047
0.619119 98.575885 11.196406 -0.154210
2.600543 98.575885 11.257070 -0.203034
4.581967 98.575885 11.119221 0.045890
6.563391 98.575885 11.159197 0.251512
8.544815 98.575885 11.061498 -0.081879
10.526239 98.575885 11.363275 -0.023305
12.507663 98.575885 10.965296 0.024125
14.489087 98.575885 11.024769 -0.071595
16.470511 98.575885 11.028750 -0.094755
18.451935 98.575885 11.039278 0.137223
20.433359 98.575885 11.005040 0.126512
22.414783 98.575885 11.045939 -0.199991
24.396207 98.575885 11.163890 0.028346
26.377631 98.575885 11.059618 -0.170874
28.359055 98.575885 10.823188 -0.092756
30.340479 98.575885 11.009726 -0.069316
32.321903 98.575885 10.970658 0.049400
34.303327 98.575885 10.969569 -0.271227
36.284751 98.575885 10.942379 -0.053088
38.266175 98.575885 11.046133 0.140128
40.247599 98.575885 10.892065 0.054951
42.229023 98.575885 11.029799 -0.060121
44.210447 98.575885 11.141961 -0.108912
46.191871 98.575885 11.015981 0.008450
48.173295 98.575885 11.121785 0.235990
50.154719 98.575885 11.113200 0.213764
52.136143 98.575885 10.995147 0.306898
54.117567 98.575885 10.953855 -0.106954
56.098991 98.575885 10.857816 0.277034
58.080415 98.575885 10.971102 0.219341
60.061839 98.575885 10.865845 0.313269
62.043263 98.575885 11.056769 0.254965
64.024687 98.575885 11.136984 0.143094
66.006110 98.575885 11.043269 -0.128414
67.987534 98.575885 0.000000 0.000000
-132.136287 96.594461 11.765491 0.185757
-130.154863 96.594461 11.459104 0.091058
-128.173439 96.594461 11.161846 0.218926
-126.192015 96.594461 10.958019 0.229099
-124.210591 96.594461 11.289090 0.293707
-122.229167 96.594461 10.991533 0.161076
-120.247743 96.594461 11.304067 0.341485
-118.266319 96.594461 11.391496 0.423315
-116.284895 96.594461 11.229280 0.521186
-114.303471 96.594461 0.000000 0.000000
-112.322047 96.594461 0.000000 0.000000
-110.340623 96.594461 0.000000 0.000000
-108.359199 96.594461 0.000000 0.000000
-106.377775 96.594461 0.000000 0.000000
-104.396351 96.594461 0.000000 0.000000
-102.414927 96.594461 0.000000 0.000000
-100.433503 96.594461 0.000000 0.000000
-98.452079 96.594461 0.000000 0.000000
-96.470655 96.594461 0.000000 0.000000
-94.489231 96.594461 0.000000 0.000000
-92.507807 96.594461 0.000000 0.000000
-90.526383 96.594461 0.000000 0.000000
-88.544959 96.594461 11.493380 0.338437
-86.563536 96.594461 11.505857 0.354033
-84.582112 96.594461 11.303224 0.214587
-82.600688 96.594461 11.216609 0.354986
-80.619264 96.594461 11.540399 0.070138
-78.637840 96.594461 11.569453 0.267429
-76.656416 96.594461 11.568760 0.243757
-74.674992 96.594461 11.277217 0.069093
-72.693568 96.594461 11.369186 0.321390
-70.712144 96.594461 11.311338 0.279414
-68.730720 96.594461 11.551805 0.292308
-66.749296 96.594461 11.478544 0.273937
-64.767872 96.594461 11.406904 0.158479
-62.786448 96.594461 11.483873 0.190975
-60.805024 96.594461 11.569076 0.137213
-58.823600 96.594461 11.269593 0.216609
-56.842176 96.594461 11.455403 0.306167
-54.860752 96.594461 11.500336 -0.167953
-52.879328 96.594461 11.465606 0.043044
-50.897904 96.594461 11.459723 0.265551
-48.916480 96.594461 11.256079 0.299807
-46.935056 96.594461 11.481446 -0.035151
-44.953632 96.594461 11.326034 -0.131659
-42.972208 96.594461 11.336786 -0.001973
-40.990784 96.594461 11.379563 -0.021334
-39.009360 96.594461 11.396719 0.213821
-37.027936 96.594461 11.543433 0.164033
-35.046512 96.594461 11.206200 0.129088
-33.065088 96.594461 11.362164 -0.002041
-31.083664 96.594461 11.519590 -0.122578
-29.102240 96.594461 11.322804 -0.244124
-27.120816 96.594461 11.151234 -0.099726
-25.139392 96.594461 11.150496 -0.143483
-23.157968 96.594461 11.173218 0.039979
-21.176544 96.594461 11.101999 -0.313540
-19.195120 96.594461 11.420382 -0.163375
-17.213696 96.594461 11.030338 -0.174679
-15.232272 96.594461 0.000000 0.000000
-13.250848 96.594461 0.000000 0.000000
-11.269424 96.594461 0.000000 0.000000
-9.288001 96.594461 0.000000 0.000000
-7.306577 96.594461 0.000000 0.000000
-5.325153 96.594461 0.000000 0.000000
-3.343729 96.594461 0.000000 0.000000
-1.362305 96.594461 11.128536 0.010814
0.619119 96.594461 11.134419 -0.396397
2.600543 96.594461 11.193473 -0.259931
4.581967 96.594461 11.172692 -0.139312
6.563391 96.594461 11.125883 0.152930
8.544815 96.594461 11.118411 -0.186284
10.526239 96.594461 11.201442 0.010511
12.507663 96.594461 11.006662 0.171712
14.489087 96.594461 11.016115 -0.146697
16.470511 96.594461 11.149144 -0.234656
18.451935 96.594461 11.029669 -0.097151
20.433359 96.594461 11.006422 -0.035743
22.414783 96.594461 10.903446 -0.079740
24.396207 96.594461 11.055289 0.030402
26.377631 96.594461 11.061833 -0.079672
28.359055 96.594461 10.960311 -0.187841
30.340479 96.594461 10.932719 0.024072
32.321903 96.594461 10.964187 0.109595
34.303327 96.594461 10.930783 -0.161123
36.284751 96.594461 10.958665 -0.029891
38.266175 96.594461 10.994325 0.173153
40.247599 96.594461 10.859160 0.119423
42.229023 96.594461 10.971695 0.156187
44.210447 96.594461 11.060563 0.073468
46.191871 96.594461 10.999229 -0.017068
48.173295 96.594461 10.931866 0.174204
50.154719 96.594461 11.079059 0.110829
52.136143 96.594461 10.935886 0.174363
54.117567 96.594461 10.956219 -0.034532
56.098991 96.594461 10.768555 0.189600
58.080415 96.594461 10.960899 0.189156
60.061839 96.594461 10.968472 0.284357
62.043263 96.594461 10.969189 0.222372
64.024687 96.594461 11.027889 0.169312
66.006110 96.594461 11.035314 -0.088945
67.987534 96.594461 0.000000 0.000000
-132.136287 94.613037 11.555130 0.152519
-130.154863 94.613037 11.372101 0.337429
-128.173439 94.613037 11.051835 0.143376
-126.192015 94.613037 10.938604 0.363762
-124.210591 94.613037 11.419944 0.461180
-122.229167 94.613037 10.975638 0.282372
-120.247743 94.613037 11.374514 0.248734
-118.266319 94.613037 11.090411 0.367083
-116.284895 94.613037 11.494994 0.467542
-114.303471 94.613037 0.000000 0.000000
-112.322047 94.613037 0.000000 0.000000
-110.340623 94.613037 0.000000 0.000000
-108.359199 94.613037 0.000000 0.000000
-106.377775 94.613037 0.000000 0.000000
-104.396351 94.613037 0.000000 0.000000
-102.414927 94.613037 0.000000 0.000000
-100.433503 94.613037 0.000000 0.000000
-98.452079 94.613037 0.000000 0.000000
-96.470655 94.613037 0.000000 0.000000
-94.489231 94.613037 0.000000 0.000000
-92.507807 94.613037 0.000000 0.000000
-90.526383 94.613037 0.000000 0.000000
-88.544959 94.613037 11.544855 0.294146
-86.563536 94.613037 11.590934 0.491532
-84.582112 94.613037 11.495414 0.264067
-82.600688 94.613037 11.411940 0.367785
-80.619264 94.613037 11.529788 -0.062024
-78.637840 94.613037 11.516142 0.208057
-76.656416 94.613037 11.493432 0.191717
-74.674992 94.613037 11.114116 0.053323
-72.693568 94.613037 11.468211 0.230637
-70.712144 94.613037 11.428274 0.168165
-68.730720 94.613037 11.750289 0.239208
-66.749296 94.613037 11.542444 0.259503
-64.767872 94.613037 11.290386 0.290481
-62.786448 94.613037 11.260377 0.297710
-60.805024 94.613037 11.495606 0.153543
-58.823600 94.613037 11.286087 0.217277
-56.842176 94.613037 11.604005 0.419530
-54.860752 94.613037 11.536795 -0.105156
-52.879328 94.613037 11.549364 0.059749
-50.897904 94.613037 11.533440 0.251219
-48.916480 94.613037 11.428055 0.342980
-46.935056 94.613037 11.271066 0.089807
-44.953632 94.613037 11.352247 -0.153237
-42.972208 94.613037 11.531981 -0.151485
-40.990784 94.613037 11.191631 -0.238293
-39.009360 94.613037 11.493266 -0.138650
-37.027936 94.613037 11.531965 0.130422
-35.046512 94.613037 11.128071 0.301126
-33.065088 94.613037 11.328423 0.093215
-31.083664 94.613037 11.263958 -0.147369
-29.102240 94.613037 11.366960 -0.251833
-27.120816 94.613037 11.429573 -0.177320
-25.139392 94.613037 11.262310 0.137749
-23.157968 94.613037 11.169937 -0.052507
-21.176544 94.613037 11.180002 -0.240139
-19.195120 94.613037 11.485085 0.162701
-17.213696 94.613037 11.124196 -0.080524
-15.232272 94.613037 11.110664 -0.095715
-13.250848 94.613037 0.000000 0.000000
-11.269424 94.613037 0.000000 0.000000
-9.288001 94.613037 0.000000 0.000000
-7.306577 94.613037 0.000000 0.000000
-5.325153 94.613037 0.000000 0.000000
-3.343729 94.613037 0.000000 0.000000
-1.362305 94.613037 10.997947 -0.190519
0.619119 94.613037 10.985414 -0.312699
2.600543 94.613037 11.182981 -0.063922
4.581967 94.613037 11.174398 -0.163563
6.563391 94.613037 11.046755 0.131205
8.544815 94.613037 11.238115 0.059926
10.526239 94.613037 11.168522 0.026614
12.507663 94.613037 11.030435 0.006343
14.489087 94.613037 10.952105 -0.125530
16.470511 94.613037 11.137773 -0.198222
18.451935 94.613037 11.006535 -0.073838
20.433359 94.613037 10.941880 -0.147378
22.414783 94.613037 10.904102 -0.122643
24.396207 94.613037 11.076379 0.083364
26.377631 94.613037 11.092422 0.195097
28.359055 94.613037 11.057779 -0.011144
30.340479 94.613037 10.977578 0.148148
32.321903 94.613037 11.033031 0.030768
34.303327 94.613037 11.013390 -0.017354
36.284751 94.613037 10.879440 0.003420
38.266175 94.613037 10.910918 0.143936
40.247599 94.613037 11.059686 -0.125860
42.229023 94.613037 10.982883 0.137568
44.210447 94.613037 11.051380 0.103375
46.191871 94.613037 10.907604 -0.162438
48.173295 94.613037 10.984848 0.008821
50.154719 94.613037 11.106415 0.041848
52.136143 94.613037 10.963544 -0.060139
54.117567 94.613037 10.997957 -0.000084
56.098991 94.613037 10.879296 0.137756
58.080415 94.613037 11.018444 0.181960
60.061839 94.613037 11.134938 0.026542
62.043263 94.613037 11.009604 -0.056919
64.024687 94.613037 11.004549 0.195604
66.006110 94.613037 10.915300 -0.002397
67.987534 94.613037 0.000000 0.000000
-132.136287 92.631613 5.453445 -10.231105
-130.154863 92.631613 11.088148 0.413307
-128.173439 92.631613 -0.440071 0.281726
-126.192015 92.631613 11.377155 0.580358
-124.210591 92.631613 11.278940 0.545848
-122.229167 92.631613 11.180839 0.405036
-120.247743 92.631613 11.381052 0.265827
-118.266319 92.631613 11.196775 0.362581
-116.284895 92.631613 11.505848 0.372329
-114.303471 92.631613 0.000000 0.000000
-112.322047 92.631613 0.000000 0.000000
-110.340623 92.631613 0.000000 0.000000
-108.359199 92.631613 0.000000 0.000000
-106.377775 92.631613 0.000000 0.000000
-104.396351 92.631613 0.000000 0.000000
-102.414927 92.631613 0.000000 0.000000
-100.433503 92.631613 0.000000 0.000000
-98.452079 92.631613 0.000000 0.000000
-96.470655 92.631613 0.000000 0.000000
-94.489231 92.631613 0.000000 0.000000
-92.507807 92.631613 0.000000 0.000000
-90.526383 92.631613 0.000000 0.000000
-88.544959 92.631613 11.578794 0.432392
-86.563536 92.631613 11.520497 0.319372
-84.582112 92.631613 11.580408 0.213376
-82.600688 92.631613 11.556019 0.396040
-80.619264 92.631613 11.521295 0.196031
-78.637840 92.631613 11.486507 0.260424
-76.656416 92.631613 11.282204 0.335052
-74.674992 92.631613 11.355556 0.181684
-72.693568 92.631613 11.512757 0.052525
-70.712144 92.631613 11.406085 0.255692
-68.730720 92.631613 11.754515 0.347553
-66.749296 92.631613 11.437132 0.291044
-64.767872 92.631613 11.133759 0.030302
-62.786448 92.631613 11.345053 0.170922
-60.805024 92.631613 11.492998 0.201596
-58.823600 92.631613 11.482958 0.291002
-56.842176 92.631613 11.443239 0.394431
-54.860752 92.631613 11.557682 0.125739
-52.879328 92.631613 11.470513 -0.075568
-50.897904 92.631613 11.540500 -0.059481
-48.916480 92.631613 11.494623 0.084151
-46.935056 92.631613 11.196158 0.067290
-44.953632 92.631613 11.504278 -0.131796
-42.972208 92.631613 11.423463 -0.067541
-40.990784 92.631613 11.213924 -0.139312
-39.009360 92.631613 11.658146 0.025816
-37.027936 92.631613 11.477792 0.083482
-35.046512 92.631613 11.186274 0.037724
-33.065088 92.631613 11.346741 0.186425
-31.083664 92.631613 11.422480 -0.053469
-29.102240 92.631613 11.314356 0.036465
-27.120816 92.631613 11.389524 -0.112496
-25.139392 92.631613 11.177954 0.078874
-23.157968 92.631613 11.204107 0.030174
-21.176544 92.631613 11.430634 -0.213217
-19.195120 92.631613 11.455744 0.109162
-17.213696 92.631613 11.202717 -0.075454
-15.232272 92.631613 11.193834 0.027573
-13.250848 92.631613 0.000000 0.000000
-11.269424 92.631613 0.000000 0.000000
-9.288001 92.631613 0.000000 0.000000
-7.306577 92.631613 0.000000 0.000000
-5.325153 92.631613 0.000000 0.000000
-3.343729 92.631613 0.000000 0.000000
-1.362305 92.631613 11.008535 -0.077558
0.619119 92.631613 11.073562 -0.055204
2.600543 92.631613 11.079515 0.166081
4.581967 92.631613 11.102534 0.128297
6.563391 92.631613 11.041350 -0.289318
8.544815 92.631613 11.212743 -0.013973
10.526239 92.631613 11.101508 -0.173886
12.507663 92.631613 11.071383 -0.165292
14.489087 92.631613 11.053595 0.092792
16.470511 92.631613 10.906626 0.131805
18.451935 92.631613 11.040095 0.019522
20.433359 92.631613 11.007521 -0.095400
22.414783 92.631613 11.063077 -0.064492
24.396207 92.631613 11.079363 0.092541
26.377631 92.631613 11.093144 0.277005
28.359055 92.631613 11.099173 0.216573
30.340479 92.631613 10.988661 0.185885
32.321903 92.631613 10.889125 0.039996
34.303327 92.631613 10.832438 0.175226
36.284751 92.631613 10.818102 0.120745
38.266175 92.631613 10.875801 0.062749
40.247599 92.631613 11.169896 -0.257691
42.229023 92.631613 10.931468 0.037787
44.210447 92.631613 11.129373 -0.084028
46.191871 92.631613 10.922555 -0.209804
48.173295 92.631613 11.086244 -0.076742
50.154719 92.631613 11.047796 0.058487
52.136143 92.631613 10.875278 -0.203552
54.117567 92.631613 11.019760 -0.052070
56.098991 92.631613 11.002794 0.210714
58.080415 92.631613 11.080894 0.078541
60.061839 92.631613 11.046981 0.001821
62.043263 92.631613 11.032264 -0.157342
64.024687 92.631613 10.996701 0.112434
66.006110 92.631613 10.884750 0.095999
67.987534 92.631613 0.000000 0.000000
-132.136287 90.650189 10.752139 1.200530
-130.154863 90.650189 10.872364 0.539183
-128.173439 90.650189 11.158064 0.523270
-126.192015 90.650189 11.308909 0.757886
-124.210591 90.650189 11.374518 0.710703
-122.229167 90.650189 11.535147 0.524159
-120.247743 90.650189 11.251825 0.505713
-118.266319 90.650189 11.302915 0.477089
-116.284895 90.650189 11.562117 0.225936
-114.303471 90.650189 11.702887 0.339835
-112.322047 90.650189 0.000000 0.000000
-110.340623 90.650189 0.000000 0.000000
-108.359199 90.650189 0.000000 0.000000
-106.377775 90.650189 0.000000 0.000000
-104.396351 90.650189 0.000000 0.000000
-102.414927 90.650189 0.000000 0.000000
-100.433503 90.650189 0.000000 0.000000
-98.452079 90.650189 0.000000 0.000000
-96.470655 90.650189 0.000000 0.000000
-94.489231 90.650189 0.000000 0.000000
-92.507807 90.650189 0.000000 0.000000
-90.526383 90.650189 0.000000 0.000000
-88.544959 90.650189 11.651139 0.492175
-86.563536 90.650189 11.532598 0.259521
-84.582112 90.650189 11.544346 0.227683
-82.600688 90.650189 11.622535 0.455649
-80.619264 90.650189 11.577275 0.242342
-78.637840 90.650189 11.484849 0.195751
-76.656416 90.650189 11.540239 0.286404
-74.674992 90.650189 11.378213 0.241235
-72.693568 90.650189 11.430804 0.110096
-70.712144 90.650189 11.440822 0.158427
-68.730720 90.650189 11.815207 0.292313
-66.749296 90.650189 11.620510 0.192742
-64.767872 90.650189 11.537419 0.048317
-62.786448 90.650189 11.455029 0.110982
-60.805024 90.650189 11.507149 0.260765
-58.823600 90.650189 11.523098 0.146229
-56.842176 90.650189 11.381677 -0.035179
-54.860752 90.650189 11.626162 0.089062
-52.879328 90.650189 11.539212 0.090929
-50.897904 90.650189 11.422740 -0.029482
-48.916480 90.650189 11.364976 -0.044947
-46.935056 90.650189 11.304275 -0.020934
-44.953632 90.650189 11.698878 -0.150466
-42.972208 90.650189 11.431460 -0.073501
-40.990784 90.650189 11.352959 -0.142362
-39.009360 90.650189 11.564621 -0.199725
-37.027936 90.650189 11.311348 -0.155611
-35.046512 90.650189 11.212126 -0.024428
-33.065088 90.650189 11.294604 0.033005
-31.083664 90.650189 11.311373 -0.010738
-29.102240 90.650189 11.354819 0.039469
-27.120816 90.650189 11.381602 0.034791
-25.139392 90.650189 11.147413 -0.092636
-23.157968 90.650189 11.218244 0.085216
-21.176544 90.650189 11.436539 -0.168217
-19.195120 90.650189 11.282103 0.014540
-17.213696 90.650189 11.079958 -0.090689
-15.232272 90.650189 11.201109 -0.258583
-13.250848 90.650189 0.000000 0.000000
-11.269424 90.650189 0.000000 0.000000
-9.288001 90.650189 0.000000 0.000000
-7.306577 90.650189 0.000000 0.000000
-5.325153 90.650189 0.000000 0.000000
-3.343729 90.650189 0.000000 0.000000
-1.362305 90.650189 11.105562 -0.027462
0.619119 90.650189 11.181304 -0.067373
2.600543 90.650189 11.140077 -0.027449
4.581967 90.650189 11.038049 -0.276784
6.563391 90.650189 11.068090 -0.370129
8.544815 90.650189 11.184610 -0.167996
10.526239 90.650189 10.897426 0.086701
12.507663 90.650189 11.066743 0.021132
14.489087 90.650189 11.094432 0.073533
16.470511 90.650189 10.951199 0.119872
18.451935 90.650189 11.027379 0.043118
20.433359 90.650189 11.042254 0.060815
22.414783 90.650189 11.079267 -0.167491
24.396207 90.650189 11.184620 0.053275
26.377631 90.650189 11.071387 -0.024061
28.359055 90.650189 11.052274 0.012597
30.340479 90.650189 11.080782 0.019799
32.321903 90.650189 10.777531 0.083582
34.303327 90.650189 10.677530 0.043748
36.284751 90.650189 10.889453 0.023630
38.266175 90.650189 10.960974 -0.039288
40.247599 90.650189 10.932514 -0.064810
42.229023 90.650189 10.891942 -0.049515
44.210447 90.650189 11.185767 -0.344787
46.191871 90.650189 10.947886 -0.031186
48.173295 90.650189 11.014978 -0.095900
50.154719 90.650189 10.947785 -0.027247
52.136143 90.650189 10.836969 -0.114573
54.117567 90.650189 10.928951 0.068163
56.098991 90.650189 10.932451 0.156662
58.080415 90.650189 10.892901 0.136195
60.061839 90.650189 10.964980 -0.121180
62.043263 90.650189 10.948802 -0.017040
64.024687 90.650189 10.947617 0.100424
66.006110 90.650189 10.913492 0.137470
67.987534 90.650189 0.000000 0.000000
-132.136287 88.668765 11.049488 0.555805
-130.154863 88.668765 10.926529 0.900809
-128.173439 88.668765 11.008781 0.494004
-126.192015 88.668765 10.925797 0.732480
-124.210591 88.668765 11.253549 0.880238
-122.229167 88.668765 11.540251 0.590964
-120.247743 88.668765 11.410915 0.564203
-118.266319 88.668765 11.293715 0.489819
-116.284895 88.668765 11.474874 0.482381
-114.303471 88.668765 11.491376 0.508476
-112.322047 88.668765 0.000000 0.000000
-110.340623 88.668765 0.000000 0.000000
-108.359199 88.668765 0.000000 0.000000
-106.377775 88.668765 0.000000 0.000000
-104.396351 88.668765 0.000000 0.000000
-102.414927 88.668765 0.000000 0.000000
-100.433503 88.668765 0.000000 0.000000
-98.452079 88.668765 0.000000 0.000000
-96.470655 88.668765 0.000000 0.000000
-94.489231 88.668765 0.000000 0.000000
-92.507807 88.668765 0.000000 0.000000
-90.526383 88.668765 0.000000 0.000000
-88.544959 88.668765 11.745929 0.524642
-86.563536 88.668765 11.536086 0.423589
-84.582112 88.668765 11.541213 0.456820
-82.600688 88.668765 11.615677 0.409149
-80.619264 88.668765 11.510475 0.149740
-78.637840 88.668765 11.513893 0.237435
-76.656416 88.668765 11.411831 0.347164
-74.674992 88.668765 11.395952 0.274387
-72.693568 88.668765 11.453135 0.156063
-70.712144 88.668765 11.468607 0.149690
-68.730720 88.668765 11.732870 0.169135
-66.749296 88.668765 11.772543 0.143406
-64.767872 88.668765 11.683954 0.232808
-62.786448 88.668765 11.478773 0.270161
-60.805024 88.668765 11.520658 0.258579
-58.823600 88.668765 11.568948 0.114472
-56.842176 88.668765 11.548092 0.018707
-54.860752 88.668765 11.380522 0.077476
-52.879328 88.668765 11.504122 0.183381
-50.897904 88.668765 11.319355 0.041139
-48.916480 88.668765 11.336056 -0.082865
-46.935056 88.668765 11.410788 -0.047035
-44.953632 88.668765 11.715593 -0.209891
-42.972208 88.668765 11.458409 -0.075044
-40.990784 88.668765 11.473943 -0.156156
-39.009360 88.668765 11.484533 -0.143670
-37.027936 88.668765 11.343937 -0.033310
-35.046512 88.668765 11.206765 0.012496
-33.065088 88.668765 11.320273 -0.204588
-31.083664 88.668765 11.302129 -0.173940
-29.102240 88.668765 11.307714 -0.104239
-27.120816 88.668765 11.428129 -0.032564
-25.139392 88.668765 11.323305 -0.049622
-23.157968 88.668765 11.172372 -0.095744
-21.176544 88.668765 11.203109 -0.045374
-19.195120 88.668765 11.173830 -0.054798
-17.213696 88.668765 10.994443 -0.217133
-15.232272 88.668765 11.353460 -0.371587
-13.250848 88.668765 0.000000 0.000000
-11.269424 88.668765 0.000000 0.000000
-9.288001 88.668765 0.000000 0.000000
-7.306577 88.668765 0.000000 0.000000
-5.325153 88.668765 0.000000 0.000000
-3.343729 88.668765 0.000000 0.000000
-1.362305 88.668765 11.167638 -0.107294
0.619119 88.668765 11.092125 -0.080762
2.600543 88.668765 11.388372 -0.102430
4.581967 88.668765 11.058914 -0.276109
6.563391 88.668765 11.145876 -0.086067
8.544815 88.668765 11.173054 -0.018413
10.526239 88.668765 10.898313 0.187342
12.507663 88.668765 11.053872 0.065143
14.489087 88.668765 11.051330 -0.231771
16.470511 88.668765 11.054824 -0.095623
18.451935 88.668765 11.088037 -0.074756
20.433359 88.668765 11.013025 0.066640
22.414783 88.668765 11.071031 -0.229046
24.396207 88.668765 11.224881 0.053924
26.377631 88.668765 10.919969 -0.203832
28.359055 88.668765 10.893868 -0.223295
30.340479 88.668765 11.131173 -0.012542
32.321903 88.668765 10.909039 -0.095045
34.303327 88.668765 10.927166 -0.027095
36.284751 88.668765 11.031081 -0.070250
38.266175 88.668765 10.948472 -0.125471
40.247599 88.668765 10.994576 0.173094
42.229023 88.668765 10.804115 -0.077954
44.210447 88.668765 11.069483 -0.261574
46.191871 88.668765 10.938737 0.048306
48.173295 88.668765 10.913613 -0.065726
50.154719 88.668765 10.913726 -0.058280
52.136143 88.668765 10.918756 0.035328
54.117567 88.668765 10.846046 0.136175
56.098991 88.668765 10.760594 0.059244
58.080415 88.668765 10.860520 0.089186
60.061839 88.668765 11.018458 -0.096463
62.043263 88.668765 10.939542 0.047483
64.024687 88.668765 11.060459 0.174595
66.006110 88.668765 10.972604 0.208673
67.987534 88.668765 0.000000 0.000000
-132.136287 86.687341 11.447339 0.373997
-130.154863 86.687341 12.069511 1.370206
-128.173439 86.687341 11.544524 0.819602
-126.192015 86.687341 11.550218 0.476694
-124.210591 86.687341 11.163041 0.717736
-122.229167 86.687341 11.102679 0.815367
-120.247743 86.687341 11.356943 0.581168
-118.266319 86.687341 11.478508 0.464057
-116.284895 86.687341 11.315754 0.614557
-114.303471 86.687341 11.100118 0.533639
-112.322047 86.687341 0.000000 0.000000
-110.340623 86.687341 0.000000 0.000000
-108.359199 86.687341 0.000000 0.000000
-106.377775 86.687341 0.000000 0.000000
-104.396351 86.687341 0.000000 0.000000
-102.414927 86.687341 0.000000 0.000000
-100.433503 86.687341 0.000000 0.000000
-98.452079 86.687341 0.000000 0.000000
-96.470655 86.687341 0.000000 0.000000
-94.489231 86.687341 0.000000 0.000000
-92.507807 86.687341 0.000000 0.000000
-90.526383 86.687341 0.000000 0.000000
-88.544959 86.687341 11.692250 0.428223
-86.563536 86.687341 11.513011 0.435374
-84.582112 86.687341 11.620502 0.474397
-82.600688 86.687341 11.503939 0.427666
-80.619264 86.687341 11.513885 0.364360
-78.637840 86.687341 11.627007 0.334767
-76.656416 86.687341 11.362419 0.256180
-74.674992 86.687341 11.381104 0.183966
-72.693568 86.687341 11.566068 0.122364
-70.712144 86.687341 11.570866 0.194094
-68.730720 86.687341 11.598147 0.133500
-66.749296 86.687341 11.679594 0.014020
-64.767872 86.687341 11.624542 0.240738
-62.786448 86.687341 11.587381 0.148826
-60.805024 86.687341 11.434690 0.147223
-58.823600 86.687341 11.599953 0.200891
-56.842176 86.687341 11.475944 0.173246
-54.860752 86.687341 11.439903 0.143773
-52.879328 86.687341 11.513114 0.152976
-50.897904 86.687341 11.376035 -0.034712
-48.916480 86.687341 11.290645 0.141004
-46.935056 86.687341 11.342819 0.120487
-44.953632 86.687341 11.527855 0.043780
-42.972208 86.687341 11.352489 -0.102224
-40.990784 86.687341 11.405987 -0.176804
-39.009360 86.687341 11.480528 0.016102
-37.027936 86.687341 11.457999 0.136749
-35.046512 86.687341 11.320442 0.035981
-33.065088 86.687341 11.359223 -0.050763
-31.083664 86.687341 11.348690 -0.200937
-29.102240 86.687341 11.342269 -0.028083
-27.120816 86.687341 11.271989 -0.024554
-25.139392 86.687341 11.241550 -0.019513
-23.157968 86.687341 11.188120 -0.128130
-21.176544 86.687341 11.239079 -0.068297
-19.195120 86.687341 11.178713 -0.221176
-17.213696 86.687341 11.226682 -0.373168
-15.232272 86.687341 11.463290 -0.228309
-13.250848 86.687341 0.000000 0.000000
-11.269424 86.687341 0.000000 0.000000
-9.288001 86.687341 0.000000 0.000000
-7.306577 86.687341 0.000000 0.000000
-5.325153 86.687341 0.000000 0.000000
-3.343729 86.687341 0.000000 0.000000
-1.362305 86.687341 11.163051 -0.087146
0.619119 86.687341 11.096946 -0.193780
2.600543 86.687341 11.181663 -0.063230
4.581967 86.687341 11.102862 0.094579
6.563391 86.687341 11.046302 0.015422
8.544815 86.687341 11.095750 -0.049094
10.526239 86.687341 10.999528 -0.148878
12.507663 86.687341 11.099567 -0.058688
14.489087 86.687341 11.055164 -0.210195
16.470511 86.687341 10.998027 -0.031157
18.451935 86.687341 11.033667 -0.032229
20.433359 86.687341 11.041300 -0.165553
22.414783 86.687341 11.068555 -0.264394
24.396207 86.687341 11.001553 -0.042870
26.377631 86.687341 10.914761 -0.026074
28.359055 86.687341 10.876216 -0.207816
30.340479 86.687341 10.928681 0.111295
32.321903 86.687341 10.871602 -0.010909
34.303327 86.687341 11.001756 0.107869
36.284751 86.687341 11.090551 0.177565
38.266175 86.687341 10.912277 0.022193
40.247599 86.687341 11.044757 0.211359
42.229023 86.687341 10.797174 -0.135771
44.210447 86.687341 10.923647 0.066148
46.191871 86.687341 11.085658 0.098278
48.173295 86.687341 10.911966 0.018313
50.154719 86.687341 10.873022 -0.120393
52.136143 86.687341 10.977135 -0.072437
54.117567 86.687341 10.808057 -0.027670
56.098991 86.687341 10.865519 -0.120636
58.080415 86.687341 11.091459 -0.190787
60.061839 86.687341 10.964833 0.057892
62.043263 86.687341 11.013185 0.086906
64.024687 86.687341 10.999165 0.264391
66.006110 86.687341 10.964830 0.108613
67.987534 86.687341 0.000000 0.000000
-132.136287 84.705917 -15.745928 7.143752
-130.154863 84.705917 11.032363 0.598958
-128.173439 84.705917 11.248747 0.754294
-126.192015 84.705917 11.615557 0.255683
-124.210591 84.705917 10.873410 0.486819
-122.229167 84.705917 11.114261 0.748777
-120.247743 84.705917 11.079761 0.642216
-118.266319 84.705917 11.526351 0.268830
-116.284895 84.705917 11.473560 0.606894
-114.303471 84.705917 11.215587 0.636018
-112.322047 84.705917 0.000000 0.000000
-110.340623 84.705917 0.000000 0.000000
-108.359199 84.705917 0.000000 0.000000
-106.377775 84.705917 0.000000 0.000000
-104.396351 84.705917 0.000000 0.000000
-102.414927 84.705917 0.000000 0.000000
-100.433503 84.705917 0.000000 0.000000