TITLE = "B00010"
VARIABLES = "position", "position(2)", "Vx", "Vy"
ZONE T="Frame 0", I=102, J=78
-132.136287 98.575885 11.156303 -0.013985
-130.154863 98.575885 11.527718 -0.008190
-128.173439 98.575885 11.451404 0.393122
-126.192015 98.575885 11.364101 0.511477
-124.210591 98.575885 11.440789 0.493711
-122.229167 98.575885 11.475606 0.657086
-120.247743 98.575885 11.472759 0.782483
-118.266319 98.575885 11.442384 0.621106
-116.284895 98.575885 11.366224 0.518265
-114.303471 98.575885 0.000000 0.000000
-112.322047 98.575885 0.000000 0.000000
-110.340623 98.575885 0.000000 0.000000
-108.359199 98.575885 0.000000 0.000000
-106.377775 98.575885 0.000000 0.000000
-104.396351 98.575885 0.000000 0.000000
-102.414927 98.575885 0.000000 0.000000
-100.433503 98.575885 0.000000 0.000000
-98.452079 98.575885 0.000000 0.000000
-96.470655 98.575885 0.000000 0.000000
-94.489231 98.575885 0.000000 0.000000
-92.507807 98.575885 0.000000 0.000000
-90.526383 98.575885 0.000000 0.000000
-88.544959 98.575885 11.442466 0.408167
-86.563536 98.575885 11.385571 0.446605
-84.582112 98.575885 11.464680 0.434693
-82.600688 98.575885 11.406715 0.372522
-80.619264 98.575885 11.521861 0.344133
-78.637840 98.575885 11.542874 0.367762
-76.656416 98.575885 11.344548 0.289667
-74.674992 98.575885 11.359642 0.303648
-72.693568 98.575885 11.427773 0.298999
-70.712144 98.575885 11.458532 0.254433
-68.730720 98.575885 11.457678 0.329593
-66.749296 98.575885 11.402968 0.366814
-64.767872 98.575885 11.341857 0.404630
-62.786448 98.575885 11.342682 0.335937
-60.805024 98.575885 11.403301 0.335968
-58.823600 98.575885 11.514647 0.316493
-56.842176 98.575885 11.456606 0.263368
-54.860752 98.575885 11.281519 0.183678
-52.879328 98.575885 11.281306 0.033919
-50.897904 98.575885 11.292464 0.129135
-48.916480 98.575885 11.319108 0.099980
-46.935056 98.575885 11.354340 -0.007254
-44.953632 98.575885 11.383930 0.024558
-42.972208 98.575885 11.359782 -0.054071
-40.990784 98.575885 11.360592 -0.101376
-39.009360 98.575885 11.355330 0.014659
-37.027936 98.575885 11.340987 -0.134150
-35.046512 98.575885 11.329873 -0.191173
-33.065088 98.575885 11.296363 -0.068671
-31.083664 98.575885 11.358695 0.006187
-29.102240 98.575885 11.417160 -0.079677
-27.120816 98.575885 11.335719 -0.172713
-25.139392 98.575885 11.364617 -0.051924
-23.157968 98.575885 11.205461 -0.012979
-21.176544 98.575885 11.085603 -0.025245
-19.195120 98.575885 11.131916 0.095133
-17.213696 98.575885 11.277107 0.093684
-15.232272 98.575885 0.000000 0.000000
-13.250848 98.575885 0.000000 0.000000
-11.269424 98.575885 0.000000 0.000000
-9.288001 98.575885 0.000000 0.000000
-7.306577 98.575885 0.000000 0.000000
-5.325153 98.575885 0.000000 0.000000
-3.343729 98.575885 0.000000 0.000000
-1.362305 98.575885 11.284065 -0.119171
0.619119 98.575885 11.381628 -0.173498
2.600543 98.575885 11.375817 -0.232826
4.581967 98.575885 11.161723 -0.314985
6.563391 98.575885 11.084640 -0.208751
8.544815 98.575885 11.111724 -0.089039
10.526239 98.575885 11.149837 -0.149263
12.507663 98.575885 11.130208 -0.114145
14.489087 98.575885 11.092953 0.000694
16.470511 98.575885 11.188100 0.006625
18.451935 98.575885 11.222897 0.019018
20.433359 98.575885 11.220586 -0.070637
22.414783 98.575885 11.225610 0.016792
24.396207 98.575885 11.207061 0.083975
26.377631 98.575885 11.135917 0.023806
28.359055 98.575885 11.162862 -0.010382
30.340479 98.575885 11.175156 0.046451
32.321903 98.575885 11.073028 0.031800
34.303327 98.575885 11.134383 -0.094001
36.284751 98.575885 11.315977 0.015422
38.266175 98.575885 11.203139 0.212279
40.247599 98.575885 10.980849 0.285524
42.229023 98.575885 10.990402 0.226767
44.210447 98.575885 11.154195 0.245366
46.191871 98.575885 11.136668 0.174535
48.173295 98.575885 11.040051 0.032561
50.154719 98.575885 11.086536 0.069250
52.136143 98.575885 11.097842 0.098950
54.117567 98.575885 11.010679 0.072140
56.098991 98.575885 11.140773 0.110965
58.080415 98.575885 11.177387 -0.048524
60.061839 98.575885 10.900867 -0.195525
62.043263 98.575885 10.964010 -0.006181
64.024687 98.575885 11.153519 0.129971
66.006110 98.575885 11.024490 0.028229
67.987534 98.575885 0.000000 0.000000
-132.136287 96.594461 11.138203 -0.198110
-130.154863 96.594461 11.284831 0.021249
-128.173439 96.594461 11.365125 0.583237
-126.192015 96.594461 11.462666 0.650484
-124.210591 96.594461 11.493263 0.434273
-122.229167 96.594461 11.412418 0.503580
-120.247743 96.594461 11.264847 0.566005
-118.266319 96.594461 11.201461 0.450216
-116.284895 96.594461 11.215196 0.479886
-114.303471 96.594461 11.277290 0.628225
-112.322047 96.594461 0.000000 0.000000
-110.340623 96.594461 0.000000 0.000000
-108.359199 96.594461 0.000000 0.000000
-106.377775 96.594461 0.000000 0.000000
-104.396351 96.594461 0.000000 0.000000
-102.414927 96.594461 0.000000 0.000000
-100.433503 96.594461 0.000000 0.000000
-98.452079 96.594461 0.000000 0.000000
-96.470655 96.594461 0.000000 0.000000
-94.489231 96.594461 0.000000 0.000000
-92.507807 96.594461 0.000000 0.000000
-90.526383 96.594461 0.000000 0.000000
-88.544959 96.594461 11.384876 0.327144
-86.563536 96.594461 11.394782 0.451891
-84.582112 96.594461 11.385558 0.525841
-82.600688 96.594461 11.393305 0.318776
-80.619264 96.594461 11.516514 0.301168
-78.637840 96.594461 11.501266 0.391129
-76.656416 96.594461 11.378872 0.296108
-74.674992 96.594461 11.482214 0.264682
-72.693568 96.594461 11.477501 0.300882
-70.712144 96.594461 11.413501 0.383604
-68.730720 96.594461 11.473272 0.259893
-66.749296 96.594461 11.413764 0.224442
-64.767872 96.594461 11.324913 0.394030
-62.786448 96.594461 11.367828 0.334191
-60.805024 96.594461 11.459478 0.270799
-58.823600 96.594461 11.462085 0.275411
-56.842176 96.594461 11.436937 0.254994
-54.860752 96.594461 11.413745 0.235448
-52.879328 96.594461 11.385206 0.135184
-50.897904 96.594461 11.387761 0.131662
-48.916480 96.594461 11.393969 0.065001
-46.935056 96.594461 11.431003 -0.067825
-44.953632 96.594461 11.432059 -0.062728
-42.972208 96.594461 11.374237 -0.096608
-40.990784 96.594461 11.350711 -0.123736
-39.009360 96.594461 11.531435 -0.076596
-37.027936 96.594461 11.483503 -0.181800
-35.046512 96.594461 11.340809 -0.113451
-33.065088 96.594461 11.212625 -0.054532
-31.083664 96.594461 11.262628 -0.079795
-29.102240 96.594461 11.385905 -0.087106
-27.120816 96.594461 11.457616 -0.049552
-25.139392 96.594461 11.370768 0.014817
-23.157968 96.594461 11.446070 -0.013582
-21.176544 96.594461 11.417055 -0.048471
-19.195120 96.594461 11.236526 -0.026744
-17.213696 96.594461 11.333623 -0.017144
-15.232272 96.594461 11.338039 0.015669
-13.250848 96.594461 0.000000 0.000000
-11.269424 96.594461 0.000000 0.000000
-9.288001 96.594461 0.000000 0.000000
-7.306577 96.594461 0.000000 0.000000
-5.325153 96.594461 0.000000 0.000000
-3.343729 96.594461 0.000000 0.000000
-1.362305 96.594461 11.238821 -0.012424
0.619119 96.594461 11.222425 -0.104802
2.600543 96.594461 11.249980 -0.208491
4.581967 96.594461 11.153594 -0.291070
6.563391 96.594461 11.058014 -0.278862
8.544815 96.594461 11.096797 -0.240728
10.526239 96.594461 11.187977 -0.197954
12.507663 96.594461 11.257937 -0.113096
14.489087 96.594461 11.236954 -0.127090
16.470511 96.594461 11.290605 -0.114219
18.451935 96.594461 11.288315 -0.009102
20.433359 96.594461 11.222688 -0.015898
22.414783 96.594461 11.189445 -0.112280
24.396207 96.594461 11.166175 -0.055881
26.377631 96.594461 11.102927 0.021018
28.359055 96.594461 11.103200 0.053337
30.340479 96.594461 11.194936 0.085774
32.321903 96.594461 11.147141 0.028882
34.303327 96.594461 11.138759 -0.090495
36.284751 96.594461 11.255350 -0.078346
38.266175 96.594461 11.241592 0.065694
40.247599 96.594461 11.098656 0.213094
42.229023 96.594461 11.138330 0.214496
44.210447 96.594461 11.205909 0.169401
46.191871 96.594461 11.142226 0.052691
48.173295 96.594461 11.076833 -0.024322
50.154719 96.594461 11.103194 0.056033
52.136143 96.594461 11.067759 0.133600
54.117567 96.594461 11.066548 0.098944
56.098991 96.594461 11.148314 0.112647
58.080415 96.594461 11.152376 -0.020180
60.061839 96.594461 11.106093 -0.084115
62.043263 96.594461 11.160741 0.024176
64.024687 96.594461 11.150562 0.086261
66.006110 96.594461 11.186795 0.091436
67.987534 96.594461 0.000000 0.000000
-132.136287 94.613037 11.145556 -0.461484
-130.154863 94.613037 10.887659 -0.052179
-128.173439 94.613037 11.136227 0.670130
-126.192015 94.613037 11.372015 0.761317
-124.210591 94.613037 11.402143 0.664559
-122.229167 94.613037 11.358928 0.564707
-120.247743 94.613037 11.171930 0.510924
-118.266319 94.613037 11.083056 0.504750
-116.284895 94.613037 11.202047 0.659614
-114.303471 94.613037 11.329057 0.765114
-112.322047 94.613037 0.000000 0.000000
-110.340623 94.613037 0.000000 0.000000
-108.359199 94.613037 0.000000 0.000000
-106.377775 94.613037 0.000000 0.000000
-104.396351 94.613037 0.000000 0.000000
-102.414927 94.613037 0.000000 0.000000
-100.433503 94.613037 0.000000 0.000000
-98.452079 94.613037 0.000000 0.000000
-96.470655 94.613037 0.000000 0.000000
-94.489231 94.613037 0.000000 0.000000
-92.507807 94.613037 0.000000 0.000000
-90.526383 94.613037 0.000000 0.000000
-88.544959 94.613037 11.379148 0.331725
-86.563536 94.613037 11.491263 0.431899
-84.582112 94.613037 11.529555 0.462506
-82.600688 94.613037 11.546900 0.226244
-80.619264 94.613037 11.527296 0.204008
-78.637840 94.613037 11.399985 0.376546
-76.656416 94.613037 11.393818 0.347822
-74.674992 94.613037 11.506352 0.259107
-72.693568 94.613037 11.496585 0.327112
-70.712144 94.613037 11.471799 0.459275
-68.730720 94.613037 11.502486 0.266216
-66.749296 94.613037 11.463161 0.159701
-64.767872 94.613037 11.455837 0.326733
-62.786448 94.613037 11.521974 0.317908
-60.805024 94.613037 11.521043 0.239765
-58.823600 94.613037 11.362768 0.200672
-56.842176 94.613037 11.276850 0.090900
-54.860752 94.613037 11.452675 0.073386
-52.879328 94.613037 11.438967 0.180632
-50.897904 94.613037 11.461432 0.199245
-48.916480 94.613037 11.490624 0.127507
-46.935056 94.613037 11.454097 0.026579
-44.953632 94.613037 11.441324 -0.032139
-42.972208 94.613037 11.402422 -0.109142
-40.990784 94.613037 11.313321 -0.202678
-39.009360 94.613037 11.434104 -0.212887
-37.027936 94.613037 11.457555 -0.251546
-35.046512 94.613037 11.368628 -0.000728
-33.065088 94.613037 11.331283 0.043561
-31.083664 94.613037 11.324231 -0.122196
-29.102240 94.613037 11.384217 -0.108304
-27.120816 94.613037 11.486601 -0.054159
-25.139392 94.613037 11.424437 -0.027953
-23.157968 94.613037 11.454425 -0.123316
-21.176544 94.613037 11.451847 -0.134816
-19.195120 94.613037 11.301067 -0.060155
-17.213696 94.613037 11.350719 -0.074643
-15.232272 94.613037 11.163727 -0.056762
-13.250848 94.613037 0.000000 0.000000
-11.269424 94.613037 0.000000 0.000000
-9.288001 94.613037 0.000000 0.000000
-7.306577 94.613037 0.000000 0.000000
-5.325153 94.613037 0.000000 0.000000
-3.343729 94.613037 0.000000 0.000000
-1.362305 94.613037 11.260678 0.081285
0.619119 94.613037 11.122935 -0.026813
2.600543 94.613037 11.086021 -0.053609
4.581967 94.613037 11.143770 -0.112111
6.563391 94.613037 11.140834 -0.136544
8.544815 94.613037 11.139379 -0.097714
10.526239 94.613037 11.211827 -0.077803
12.507663 94.613037 11.312157 -0.032118
14.489087 94.613037 11.277463 -0.189653
16.470511 94.613037 11.226779 -0.192141
18.451935 94.613037 11.293859 0.013967
20.433359 94.613037 11.192390 -0.039406
22.414783 94.613037 11.067087 -0.208728
24.396207 94.613037 11.178759 -0.028563
26.377631 94.613037 11.146561 0.083248
28.359055 94.613037 11.128732 0.075977
30.340479 94.613037 11.172775 0.223637
32.321903 94.613037 11.175329 0.155476
34.303327 94.613037 11.157444 -0.014928
36.284751 94.613037 11.167286 -0.093414
38.266175 94.613037 11.181111 -0.122513
40.247599 94.613037 11.167262 0.016287
42.229023 94.613037 11.201421 0.032924
44.210447 94.613037 11.190928 -0.018955
46.191871 94.613037 11.148019 0.003753
48.173295 94.613037 11.075546 0.045143
50.154719 94.613037 11.060940 0.056507
52.136143 94.613037 11.057321 0.034378
54.117567 94.613037 11.113426 0.055251
56.098991 94.613037 11.095477 0.089069
58.080415 94.613037 11.120615 0.112919
60.061839 94.613037 11.224003 0.140431
62.043263 94.613037 11.289951 0.148112
64.024687 94.613037 11.086292 0.122564
66.006110 94.613037 11.067022 0.047696
67.987534 94.613037 0.000000 0.000000
-132.136287 92.631613 11.219575 0.121891
-130.154863 92.631613 10.891058 0.324252
-128.173439 92.631613 10.930478 0.699287
-126.192015 92.631613 11.213894 0.986109
-124.210591 92.631613 11.365087 0.988603
-122.229167 92.631613 11.230459 0.834107
-120.247743 92.631613 11.241943 0.706892
-118.266319 92.631613 11.259842 0.657906
-116.284895 92.631613 11.329230 0.650283
-114.303471 92.631613 11.441607 0.629829
-112.322047 92.631613 0.000000 0.000000
-110.340623 92.631613 0.000000 0.000000
-108.359199 92.631613 0.000000 0.000000
-106.377775 92.631613 0.000000 0.000000
-104.396351 92.631613 0.000000 0.000000
-102.414927 92.631613 0.000000 0.000000
-100.433503 92.631613 0.000000 0.000000
-98.452079 92.631613 0.000000 0.000000
-96.470655 92.631613 0.000000 0.000000
-94.489231 92.631613 0.000000 0.000000
-92.507807 92.631613 0.000000 0.000000
-90.526383 92.631613 0.000000 0.000000
-88.544959 92.631613 11.346648 0.351198
-86.563536 92.631613 11.529983 0.403686
-84.582112 92.631613 11.684758 0.428332
-82.600688 92.631613 11.702006 0.301620
-80.619264 92.631613 11.553452 0.170618
-78.637840 92.631613 11.314731 0.273207
-76.656416 92.631613 11.335239 0.317730
-74.674992 92.631613 11.468843 0.344645
-72.693568 92.631613 11.460733 0.357475
-70.712144 92.631613 11.475746 0.332291
-68.730720 92.631613 11.408484 0.296732
-66.749296 92.631613 11.404737 0.161032
-64.767872 92.631613 11.507559 0.176790
-62.786448 92.631613 11.646049 0.236095
-60.805024 92.631613 11.542100 0.193437
-58.823600 92.631613 11.310711 0.145471
-56.842176 92.631613 11.273645 0.114905
-54.860752 92.631613 11.444880 0.156781
-52.879328 92.631613 11.472303 0.225279
-50.897904 92.631613 11.523615 0.173459
-48.916480 92.631613 11.546599 0.127082
-46.935056 92.631613 11.457382 0.023056
-44.953632 92.631613 11.389240 -0.043517
-42.972208 92.631613 11.350709 0.010927
-40.990784 92.631613 11.268262 -0.098215
-39.009360 92.631613 11.347710 -0.195652
-37.027936 92.631613 11.387898 -0.221608
-35.046512 92.631613 11.411728 -0.141524
-33.065088 92.631613 11.483496 -0.047364
-31.083664 92.631613 11.452005 -0.020990
-29.102240 92.631613 11.406387 -0.014046
-27.120816 92.631613 11.421659 0.008702
-25.139392 92.631613 11.320554 -0.060207
-23.157968 92.631613 11.209192 -0.169092
-21.176544 92.631613 11.235277 -0.179770
-19.195120 92.631613 11.262486 -0.100291
-17.213696 92.631613 11.198972 -0.127662
-15.232272 92.631613 11.078579 -0.228046
-13.250848 92.631613 0.000000 0.000000
-11.269424 92.631613 0.000000 0.000000
-9.288001 92.631613 0.000000 0.000000
-7.306577 92.631613 0.000000 0.000000
-5.325153 92.631613 0.000000 0.000000
-3.343729 92.631613 0.000000 0.000000
-1.362305 92.631613 11.166128 -0.080201
0.619119 92.631613 11.186913 -0.103614
2.600543 92.631613 11.141896 -0.024108
4.581967 92.631613 11.036896 -0.027426
6.563391 92.631613 11.076768 -0.094976
8.544815 92.631613 11.089091 -0.125365
10.526239 92.631613 11.211004 -0.043676
12.507663 92.631613 11.302722 0.056541
14.489087 92.631613 11.170994 0.008101
16.470511 92.631613 11.147320 -0.009445
18.451935 92.631613 11.272339 0.039800
20.433359 92.631613 11.214741 -0.070261
22.414783 92.631613 11.110956 -0.146057
24.396207 92.631613 11.154551 -0.010938
26.377631 92.631613 11.179820 0.039174
28.359055 92.631613 11.207308 0.068128
30.340479 92.631613 11.092951 0.159917
32.321903 92.631613 11.051686 0.138122
34.303327 92.631613 11.122735 0.007472
36.284751 92.631613 11.207404 -0.067423
38.266175 92.631613 11.143244 -0.097795
40.247599 92.631613 11.099444 -0.060111
42.229023 92.631613 11.145214 -0.115737
44.210447 92.631613 11.088167 -0.060229
46.191871 92.631613 11.038694 0.108005
48.173295 92.631613 11.097486 0.134397
50.154719 92.631613 11.192160 0.077507
52.136143 92.631613 11.085560 0.056361
54.117567 92.631613 10.998739 0.093752
56.098991 92.631613 11.053759 0.139349
58.080415 92.631613 11.173219 0.121450
60.061839 92.631613 11.181913 0.103768
62.043263 92.631613 11.189289 0.081695
64.024687 92.631613 11.142613 0.030250
66.006110 92.631613 11.021000 -0.062651
67.987534 92.631613 0.000000 0.000000
-132.136287 90.650189 13.852615 -15.697545
-130.154863 90.650189 11.462824 0.676809
-128.173439 90.650189 11.212547 0.596962
-126.192015 90.650189 11.242137 0.944208
-124.210591 90.650189 11.366540 0.772533
-122.229167 90.650189 11.255436 0.668068
-120.247743 90.650189 11.184268 0.650351
-118.266319 90.650189 11.230901 0.512241
-116.284895 90.650189 11.293147 0.501717
-114.303471 90.650189 11.317189 0.610273
-112.322047 90.650189 0.000000 0.000000
-110.340623 90.650189 0.000000 0.000000
-108.359199 90.650189 0.000000 0.000000
-106.377775 90.650189 0.000000 0.000000
-104.396351 90.650189 0.000000 0.000000
-102.414927 90.650189 0.000000 0.000000
-100.433503 90.650189 0.000000 0.000000
-98.452079 90.650189 0.000000 0.000000
-96.470655 90.650189 0.000000 0.000000
-94.489231 90.650189 0.000000 0.000000
-92.507807 90.650189 0.000000 0.000000
-90.526383 90.650189 0.000000 0.000000
-88.544959 90.650189 11.350453 0.409072
-86.563536 90.650189 11.442933 0.426945
-84.582112 90.650189 11.512296 0.442772
-82.600688 90.650189 11.576956 0.312674
-80.619264 90.650189 11.531095 0.202563
-78.637840 90.650189 11.394096 0.279013
-76.656416 90.650189 11.404189 0.270158
-74.674992 90.650189 11.496940 0.236504
-72.693568 90.650189 11.357151 0.299331
-70.712144 90.650189 11.357546 0.254354
-68.730720 90.650189 11.289009 0.282361
-66.749296 90.650189 11.314350 0.152922
-64.767872 90.650189 11.381250 0.054961
-62.786448 90.650189 11.492737 0.140870
-60.805024 90.650189 11.605759 0.212725
-58.823600 90.650189 11.517874 0.211602
-56.842176 90.650189 11.544338 0.253598
-54.860752 90.650189 11.506943 0.182823
-52.879328 90.650189 11.530921 0.168643
-50.897904 90.650189 11.520676 0.127135
-48.916480 90.650189 11.461801 0.089820
-46.935056 90.650189 11.468145 -0.015392
-44.953632 90.650189 11.402188 -0.056407
-42.972208 90.650189 11.354157 0.137416
-40.990784 90.650189 11.287639 0.124864
-39.009360 90.650189 11.345909 0.005045
-37.027936 90.650189 11.414082 -0.052289
-35.046512 90.650189 11.440375 -0.155733
-33.065088 90.650189 11.457450 -0.146112
-31.083664 90.650189 11.448359 0.008648
-29.102240 90.650189 11.352654 -0.001139
-27.120816 90.650189 11.264789 -0.163925
-25.139392 90.650189 11.187021 -0.197217
-23.157968 90.650189 11.258070 -0.191130
-21.176544 90.650189 11.309988 -0.229960
-19.195120 90.650189 11.284749 -0.181237
-17.213696 90.650189 11.194941 -0.207651
-15.232272 90.650189 11.140772 -0.281764
-13.250848 90.650189 0.000000 0.000000
-11.269424 90.650189 0.000000 0.000000
-9.288001 90.650189 0.000000 0.000000
-7.306577 90.650189 0.000000 0.000000
-5.325153 90.650189 0.000000 0.000000
-3.343729 90.650189 11.104420 -0.133824
-1.362305 90.650189 11.062835 -0.121188
0.619119 90.650189 11.171241 -0.058427
2.600543 90.650189 11.181955 0.004716
4.581967 90.650189 11.048991 0.039495
6.563391 90.650189 11.061635 -0.115560
8.544815 90.650189 11.120303 -0.276110
10.526239 90.650189 11.192787 -0.091724
12.507663 90.650189 11.210835 0.037591
14.489087 90.650189 11.128366 0.073859
16.470511 90.650189 11.081947 0.165103
18.451935 90.650189 11.080320 0.127928
20.433359 90.650189 11.107748 -0.077295
22.414783 90.650189 11.115751 -0.212798
24.396207 90.650189 11.088348 -0.128462
26.377631 90.650189 11.182776 -0.003580
28.359055 90.650189 11.148761 -0.027421
30.340479 90.650189 10.948723 0.022437
32.321903 90.650189 10.930806 0.080761
34.303327 90.650189 11.102235 -0.038328
36.284751 90.650189 11.249287 -0.103989
38.266175 90.650189 11.174129 -0.022737
40.247599 90.650189 11.048698 0.029669
42.229023 90.650189 11.070084 -0.052757
44.210447 90.650189 10.993023 0.044371
46.191871 90.650189 11.053688 0.122792
48.173295 90.650189 11.194328 0.093727
50.154719 90.650189 11.203588 0.133359
52.136143 90.650189 11.114686 0.130104
54.117567 90.650189 10.988414 0.151633
56.098991 90.650189 11.065517 0.190514
58.080415 90.650189 11.131633 0.060285
60.061839 90.650189 11.111820 0.037930
62.043263 90.650189 11.160290 0.001897
64.024687 90.650189 11.136333 -0.112996
66.006110 90.650189 10.987559 -0.184797
67.987534 90.650189 0.000000 0.000000
-132.136287 88.668765 11.094109 -12.797452
-130.154863 88.668765 11.658477 0.527720
-128.173439 88.668765 11.632961 0.595740
-126.192015 88.668765 11.430763 0.644899
-124.210591 88.668765 11.182219 0.520004
-122.229167 88.668765 11.253889 0.370283
-120.247743 88.668765 11.350285 0.525396
-118.266319 88.668765 11.291558 0.520320
-116.284895 88.668765 11.150568 0.558420
-114.303471 88.668765 11.058961 0.772522
-112.322047 88.668765 0.000000 0.000000
-110.340623 88.668765 0.000000 0.000000
-108.359199 88.668765 0.000000 0.000000
-106.377775 88.668765 0.000000 0.000000
-104.396351 88.668765 0.000000 0.000000
-102.414927 88.668765 0.000000 0.000000
-100.433503 88.668765 0.000000 0.000000
-98.452079 88.668765 0.000000 0.000000
-96.470655 88.668765 0.000000 0.000000
-94.489231 88.668765 0.000000 0.000000
-92.507807 88.668765 0.000000 0.000000
-90.526383 88.668765 11.459354 0.552046
-88.544959 88.668765 11.398978 0.522103
-86.563536 88.668765 11.377429 0.418809
-84.582112 88.668765 11.364963 0.308337
-82.600688 88.668765 11.399129 0.259223
-80.619264 88.668765 11.483952 0.261165
-78.637840 88.668765 11.500448 0.299333
-76.656416 88.668765 11.496291 0.231304
-74.674992 88.668765 11.471541 0.156805
-72.693568 88.668765 11.417471 0.265340
-70.712144 88.668765 11.433802 0.279587
-68.730720 88.668765 11.496823 0.253389
-66.749296 88.668765 11.483971 0.196361
-64.767872 88.668765 11.395810 0.137791
-62.786448 88.668765 11.470827 0.119007
-60.805024 88.668765 11.524343 0.195437
-58.823600 88.668765 11.556589 0.269433
-56.842176 88.668765 11.652475 0.198521
-54.860752 88.668765 11.574832 0.070293
-52.879328 88.668765 11.487000 0.064468
-50.897904 88.668765 11.422319 0.059998
-48.916480 88.668765 11.389537 0.006785
-46.935056 88.668765 11.407368 0.002707
-44.953632 88.668765 11.407493 0.071085
-42.972208 88.668765 11.462886 0.155088
-40.990784 88.668765 11.390668 0.121694
-39.009360 88.668765 11.370867 0.076691
-37.027936 88.668765 11.411157 -0.026228
-35.046512 88.668765 11.370056 -0.057813
-33.065088 88.668765 11.358506 -0.055474
-31.083664 88.668765 11.394092 -0.036819
-29.102240 88.668765 11.325811 -0.055545
-27.120816 88.668765 11.315598 -0.166631
-25.139392 88.668765 11.280937 -0.227258
-23.157968 88.668765 11.375300 -0.223056
-21.176544 88.668765 11.412584 -0.203116
-19.195120 88.668765 11.344364 -0.123668
-17.213696 88.668765 11.284204 -0.124899
-15.232272 88.668765 11.227635 -0.166631
-13.250848 88.668765 0.000000 0.000000
-11.269424 88.668765 0.000000 0.000000
-9.288001 88.668765 0.000000 0.000000
-7.306577 88.668765 0.000000 0.000000
-5.325153 88.668765 0.000000 0.000000
-3.343729 88.668765 11.183069 -0.216349
-1.362305 88.668765 11.099415 -0.198269
0.619119 88.668765 11.084268 -0.142198
2.600543 88.668765 11.166357 -0.027695
4.581967 88.668765 11.189291 0.021708
6.563391 88.668765 11.204012 -0.172513
8.544815 88.668765 11.205044 -0.285388
10.526239 88.668765 11.225349 -0.153781
12.507663 88.668765 11.159729 -0.029007
14.489087 88.668765 11.052214 0.021366
16.470511 88.668765 10.964158 0.078333
18.451935 88.668765 11.009313 0.063030
20.433359 88.668765 11.164388 -0.040632
22.414783 88.668765 11.199775 -0.174164
24.396207 88.668765 11.188658 -0.075353
26.377631 88.668765 11.182515 0.032836
28.359055 88.668765 11.035699 -0.079133
30.340479 88.668765 10.970486 -0.057707
32.321903 88.668765 11.094071 0.074002
34.303327 88.668765 11.195418 -0.082645
36.284751 88.668765 11.220704 -0.073730
38.266175 88.668765 11.198289 0.063892
40.247599 88.668765 11.022782 0.115513
42.229023 88.668765 11.090268 0.110444
44.210447 88.668765 11.076328 0.011296
46.191871 88.668765 11.046605 -0.053181
48.173295 88.668765 11.129609 0.030909
50.154719 88.668765 11.055465 0.143853
52.136143 88.668765 11.028025 0.095360
54.117567 88.668765 11.030015 0.124068
56.098991 88.668765 11.052900 0.144248
58.080415 88.668765 11.009384 0.054510
60.061839 88.668765 10.976918 0.043549
62.043263 88.668765 11.100649 -0.039909
64.024687 88.668765 11.122160 -0.027758
66.006110 88.668765 10.911907 -0.002436
67.987534 88.668765 0.000000 0.000000
-132.136287 86.687341 10.609616 0.480744
-130.154863 86.687341 10.906936 0.494813
-128.173439 86.687341 11.022175 0.555999
-126.192015 86.687341 11.115527 0.474477
-124.210591 86.687341 11.068006 0.524310
-122.229167 86.687341 11.225402 0.516201
-120.247743 86.687341 11.643396 0.571962
-118.266319 86.687341 11.496193 0.552833
-116.284895 86.687341 11.252687 0.676213
-114.303471 86.687341 11.182762 0.872278
-112.322047 86.687341 0.000000 0.000000
-110.340623 86.687341 0.000000 0.000000
-108.359199 86.687341 0.000000 0.000000
-106.377775 86.687341 0.000000 0.000000
-104.396351 86.687341 0.000000 0.000000
-102.414927 86.687341 0.000000 0.000000
-100.433503 86.687341 0.000000 0.000000
-98.452079 86.687341 0.000000 0.000000
-96.470655 86.687341 0.000000 0.000000
-94.489231 86.687341 0.000000 0.000000
-92.507807 86.687341 0.000000 0.000000
-90.526383 86.687341 11.407486 0.550218
-88.544959 86.687341 11.384515 0.473445
-86.563536 86.687341 11.441036 0.328442
-84.582112 86.687341 11.478032 0.258434
-82.600688 86.687341 11.357966 0.263898
-80.619264 86.687341 11.381195 0.328295
-78.637840 86.687341 11.409203 0.384302
-76.656416 86.687341 11.536737 0.273237
-74.674992 86.687341 11.619088 0.237153
-72.693568 86.687341 11.506822 0.322373
-70.712144 86.687341 11.488507 0.259906
-68.730720 86.687341 11.556952 0.164113
-66.749296 86.687341 11.600723 0.122278
-64.767872 86.687341 11.509937 0.102130
-62.786448 86.687341 11.511953 0.092206
-60.805024 86.687341 11.478787 0.157447
-58.823600 86.687341 11.481398 0.174926
-56.842176 86.687341 11.579666 0.087552
-54.860752 86.687341 11.509754 0.062542
-52.879328 86.687341 11.362453 0.026340
-50.897904 86.687341 11.401826 -0.083767
-48.916480 86.687341 11.421204 -0.118143
-46.935056 86.687341 11.398037 -0.034969
-44.953632 86.687341 11.414398 0.064175
-42.972208 86.687341 11.469325 0.047185
-40.990784 86.687341 11.449464 -0.027545
-39.009360 86.687341 11.394766 -0.085410
-37.027936 86.687341 11.325788 -0.002610
-35.046512 86.687341 11.249743 0.018156
-33.065088 86.687341 11.283588 -0.117476
-31.083664 86.687341 11.384224 -0.146755
-29.102240 86.687341 11.362807 -0.078914
-27.120816 86.687341 11.340868 -0.081331
-25.139392 86.687341 11.316319 -0.113920
-23.157968 86.687341 11.364970 -0.109021
-21.176544 86.687341 11.375589 -0.123715
-19.195120 86.687341 11.365419 -0.061127
-17.213696 86.687341 11.382983 -0.035028
-15.232272 86.687341 11.317394 -0.028248
-13.250848 86.687341 0.000000 0.000000
-11.269424 86.687341 0.000000 0.000000
-9.288001 86.687341 0.000000 0.000000
-7.306577 86.687341 0.000000 0.000000
-5.325153 86.687341 0.000000 0.000000
-3.343729 86.687341 11.366025 -0.207839
-1.362305 86.687341 11.228503 -0.236634
0.619119 86.687341 11.082625 -0.226520
2.600543 86.687341 11.070952 -0.162426
4.581967 86.687341 11.083139 -0.146937
6.563391 86.687341 11.253261 -0.052473
8.544815 86.687341 11.149032 -0.095843
10.526239 86.687341 11.145252 -0.181038
12.507663 86.687341 11.207379 -0.134117
14.489087 86.687341 11.042697 -0.106159
16.470511 86.687341 10.908437 -0.035096
18.451935 86.687341 11.105622 -0.031985
20.433359 86.687341 11.280098 -0.048049
22.414783 86.687341 11.267519 -0.047324
24.396207 86.687341 11.173055 0.023607
26.377631 86.687341 11.166792 0.041484
28.359055 86.687341 11.116754 -0.020896
30.340479 86.687341 11.097673 -0.061753
32.321903 86.687341 11.183439 -0.057170
34.303327 86.687341 11.085185 -0.060215
36.284751 86.687341 11.059308 0.016468
38.266175 86.687341 11.171380 0.071429
40.247599 86.687341 11.087838 0.113984
42.229023 86.687341 11.122567 0.100156
44.210447 86.687341 11.109736 0.000895
46.191871 86.687341 10.973536 -0.107449
48.173295 86.687341 10.987735 -0.033537
50.154719 86.687341 10.991977 0.093425
52.136143 86.687341 10.985842 0.103076
54.117567 86.687341 11.060102 -0.003026
56.098991 86.687341 11.138802 -0.021498
58.080415 86.687341 11.064563 0.112416
60.061839 86.687341 10.973744 0.086814
62.043263 86.687341 11.047997 -0.038625
64.024687 86.687341 11.099087 0.048442
66.006110 86.687341 11.060884 -0.002689
67.987534 86.687341 0.000000 0.000000
-132.136287 84.705917 10.717966 0.751685
-130.154863 84.705917 10.964362 0.853587
-128.173439 84.705917 10.992386 0.497558
-126.192015 84.705917 11.126716 0.496797
-124.210591 84.705917 11.274464 0.969462
-122.229167 84.705917 11.298453 0.920635
-120.247743 84.705917 11.515654 0.606960
-118.266319 84.705917 11.368660 0.580884
-116.284895 84.705917 11.280782 0.660852
-114.303471 84.705917 11.407870 0.648913
-112.322047 84.705917 0.000000 0.000000
-110.340623 84.705917 0.000000 0.000000
-108.359199 84.705917 0.000000 0.000000
-106.377775 84.705917 0.000000 0.000000
-104.396351 84.705917 0.000000 0.000000
-102.414927 84.705917 0.000000 0.000000
-100.433503 84.705917 0.000000 0.000000