TITLE = "B00017"
VARIABLES = "position", "position(2)", "Vx", "Vy"
ZONE T="Frame 0", I=102, J=78
-132.136287 98.575885 13.223153 -4.982357
-130.154863 98.575885 11.347607 0.394323
-128.173439 98.575885 11.327903 0.103052
-126.192015 98.575885 11.501832 0.268331
-124.210591 98.575885 11.574673 0.609136
-122.229167 98.575885 11.582685 0.752524
-120.247743 98.575885 11.404211 0.839849
-118.266319 98.575885 11.287789 0.701711
-116.284895 98.575885 11.286161 0.571346
-114.303471 98.575885 0.000000 0.000000
-112.322047 98.575885 0.000000 0.000000
-110.340623 98.575885 0.000000 0.000000
-108.359199 98.575885 0.000000 0.000000
-106.377775 98.575885 0.000000 0.000000
-104.396351 98.575885 0.000000 0.000000
-102.414927 98.575885 0.000000 0.000000
-100.433503 98.575885 0.000000 0.000000
-98.452079 98.575885 0.000000 0.000000
-96.470655 98.575885 0.000000 0.000000
-94.489231 98.575885 0.000000 0.000000
-92.507807 98.575885 0.000000 0.000000
-90.526383 98.575885 0.000000 0.000000
-88.544959 98.575885 11.191886 0.512215
-86.563536 98.575885 11.250679 0.547642
-84.582112 98.575885 11.353571 0.438050
-82.600688 98.575885 11.530770 0.321054
-80.619264 98.575885 11.580217 0.329776
-78.637840 98.575885 11.395555 0.245895
-76.656416 98.575885 11.406528 0.121506
-74.674992 98.575885 11.578766 0.222917
-72.693568 98.575885 11.538690 0.339349
-70.712144 98.575885 11.452273 0.197713
-68.730720 98.575885 11.492434 0.114805
-66.749296 98.575885 11.376863 0.148768
-64.767872 98.575885 11.365838 0.126636
-62.786448 98.575885 11.422304 0.076295
-60.805024 98.575885 11.461325 0.174472
-58.823600 98.575885 11.400037 0.207464
-56.842176 98.575885 11.245564 0.129763
-54.860752 98.575885 11.289659 0.193558
-52.879328 98.575885 11.368217 0.289081
-50.897904 98.575885 11.375752 0.157289
-48.916480 98.575885 11.359830 -0.068422
-46.935056 98.575885 11.396419 -0.111356
-44.953632 98.575885 11.503316 0.070460
-42.972208 98.575885 11.445696 0.067201
-40.990784 98.575885 11.502679 -0.012171
-39.009360 98.575885 11.390049 0.025120
-37.027936 98.575885 11.422256 0.015180
-35.046512 98.575885 11.396836 -0.035197
-33.065088 98.575885 11.364395 -0.033072
-31.083664 98.575885 11.289211 -0.032707
-29.102240 98.575885 11.321024 -0.047771
-27.120816 98.575885 11.370826 -0.128462
-25.139392 98.575885 11.247553 -0.150119
-23.157968 98.575885 11.275061 0.040306
-21.176544 98.575885 11.319880 0.083575
-19.195120 98.575885 11.368217 -0.063064
-17.213696 98.575885 11.302409 -0.280499
-15.232272 98.575885 0.000000 0.000000
-13.250848 98.575885 0.000000 0.000000
-11.269424 98.575885 0.000000 0.000000
-9.288001 98.575885 0.000000 0.000000
-7.306577 98.575885 0.000000 0.000000
-5.325153 98.575885 0.000000 0.000000
-3.343729 98.575885 0.000000 0.000000
-1.362305 98.575885 11.055970 0.085388
0.619119 98.575885 11.129500 0.079696
2.600543 98.575885 11.242095 -0.020250
4.581967 98.575885 11.205117 -0.066632
6.563391 98.575885 11.070097 0.038708
8.544815 98.575885 11.080598 0.173166
10.526239 98.575885 11.193549 0.126253
12.507663 98.575885 11.291899 0.014895
14.489087 98.575885 11.237663 0.009035
16.470511 98.575885 11.149853 0.067240
18.451935 98.575885 11.155601 0.029609
20.433359 98.575885 11.212697 0.014044
22.414783 98.575885 11.241743 0.030970
24.396207 98.575885 11.165349 0.038921
26.377631 98.575885 11.213856 -0.047706
28.359055 98.575885 11.266777 0.001973
30.340479 98.575885 11.202161 -0.058864
32.321903 98.575885 11.193338 -0.094591
34.303327 98.575885 11.228238 -0.032815
36.284751 98.575885 11.204021 -0.031342
38.266175 98.575885 11.191162 0.009577
40.247599 98.575885 11.248105 -0.014110
42.229023 98.575885 11.223420 -0.021150
44.210447 98.575885 11.136837 0.055914
46.191871 98.575885 11.158423 0.050561
48.173295 98.575885 11.115769 0.036900
50.154719 98.575885 11.014304 -0.057267
52.136143 98.575885 11.068730 0.027625
54.117567 98.575885 11.198312 0.095656
56.098991 98.575885 11.142573 0.044098
58.080415 98.575885 11.103284 -0.005011
60.061839 98.575885 11.114764 -0.038283
62.043263 98.575885 11.150362 -0.026960
64.024687 98.575885 11.073627 -0.032047
66.006110 98.575885 11.071831 -0.003278
67.987534 98.575885 0.000000 0.000000
-132.136287 96.594461 11.026316 0.908955
-130.154863 96.594461 11.162885 0.724528
-128.173439 96.594461 11.180430 0.546624
-126.192015 96.594461 11.240115 0.686905
-124.210591 96.594461 11.394958 0.666339
-122.229167 96.594461 11.414989 0.700521
-120.247743 96.594461 11.181318 0.658993
-118.266319 96.594461 11.218082 0.478181
-116.284895 96.594461 11.306511 0.542030
-114.303471 96.594461 11.254039 0.700570
-112.322047 96.594461 0.000000 0.000000
-110.340623 96.594461 0.000000 0.000000
-108.359199 96.594461 0.000000 0.000000
-106.377775 96.594461 0.000000 0.000000
-104.396351 96.594461 0.000000 0.000000
-102.414927 96.594461 0.000000 0.000000
-100.433503 96.594461 0.000000 0.000000
-98.452079 96.594461 0.000000 0.000000
-96.470655 96.594461 0.000000 0.000000
-94.489231 96.594461 0.000000 0.000000
-92.507807 96.594461 0.000000 0.000000
-90.526383 96.594461 0.000000 0.000000
-88.544959 96.594461 11.271103 0.448173
-86.563536 96.594461 11.348622 0.512190
-84.582112 96.594461 11.429430 0.458554
-82.600688 96.594461 11.470972 0.372499
-80.619264 96.594461 11.505917 0.339412
-78.637840 96.594461 11.448310 0.317024
-76.656416 96.594461 11.480072 0.364170
-74.674992 96.594461 11.449338 0.364878
-72.693568 96.594461 11.366793 0.233039
-70.712144 96.594461 11.423399 0.143059
-68.730720 96.594461 11.515988 0.226394
-66.749296 96.594461 11.429734 0.198629
-64.767872 96.594461 11.429034 0.094040
-62.786448 96.594461 11.468657 0.097938
-60.805024 96.594461 11.482054 0.195338
-58.823600 96.594461 11.280014 0.150204
-56.842176 96.594461 11.191381 0.072132
-54.860752 96.594461 11.372178 0.183425
-52.879328 96.594461 11.440989 0.228224
-50.897904 96.594461 11.421571 0.116018
-48.916480 96.594461 11.403954 -0.000118
-46.935056 96.594461 11.397469 -0.052914
-44.953632 96.594461 11.479152 -0.065660
-42.972208 96.594461 11.421794 -0.043436
-40.990784 96.594461 11.413836 0.047787
-39.009360 96.594461 11.446576 0.053892
-37.027936 96.594461 11.448284 -0.050409
-35.046512 96.594461 11.286702 -0.093232
-33.065088 96.594461 11.253930 -0.076450
-31.083664 96.594461 11.268857 -0.164947
-29.102240 96.594461 11.252266 -0.232094
-27.120816 96.594461 11.273341 -0.167729
-25.139392 96.594461 11.230144 -0.032507
-23.157968 96.594461 11.107182 -0.011690
-21.176544 96.594461 11.210755 -0.023469
-19.195120 96.594461 11.425981 -0.097969
-17.213696 96.594461 11.409676 -0.203328
-15.232272 96.594461 11.303591 -0.138086
-13.250848 96.594461 0.000000 0.000000
-11.269424 96.594461 0.000000 0.000000
-9.288001 96.594461 0.000000 0.000000
-7.306577 96.594461 0.000000 0.000000
-5.325153 96.594461 0.000000 0.000000
-3.343729 96.594461 0.000000 0.000000
-1.362305 96.594461 10.995733 0.096177
0.619119 96.594461 11.082964 0.096913
2.600543 96.594461 11.273507 0.045855
4.581967 96.594461 11.260337 0.011576
6.563391 96.594461 11.131345 0.074444
8.544815 96.594461 11.152350 0.047066
10.526239 96.594461 11.103342 -0.066680
12.507663 96.594461 11.157189 -0.081494
14.489087 96.594461 11.198252 -0.017315
16.470511 96.594461 11.214135 0.045226
18.451935 96.594461 11.251530 -0.041455
20.433359 96.594461 11.248462 -0.051291
22.414783 96.594461 11.246757 0.029190
24.396207 96.594461 11.201029 0.021252
26.377631 96.594461 11.188599 -0.014258
28.359055 96.594461 11.149887 0.067417
30.340479 96.594461 11.166860 0.055934
32.321903 96.594461 11.215268 0.019923
34.303327 96.594461 11.235968 0.048187
36.284751 96.594461 11.182255 -0.031809
38.266175 96.594461 11.139902 -0.031560
40.247599 96.594461 11.234404 0.045768
42.229023 96.594461 11.183221 0.040708
44.210447 96.594461 11.081969 0.021736
46.191871 96.594461 11.149854 -0.027735
48.173295 96.594461 11.184987 0.031612
50.154719 96.594461 11.155456 -0.013841
52.136143 96.594461 11.100950 -0.051996
54.117567 96.594461 11.153594 0.036139
56.098991 96.594461 11.166553 0.089264
58.080415 96.594461 11.148367 0.055297
60.061839 96.594461 11.164364 0.024321
62.043263 96.594461 11.139874 0.010617
64.024687 96.594461 11.085382 -0.041497
66.006110 96.594461 11.083140 0.006076
67.987534 96.594461 0.000000 0.000000
-132.136287 94.613037 10.932722 1.237816
-130.154863 94.613037 11.040073 1.195379
-128.173439 94.613037 11.237873 0.942259
-126.192015 94.613037 11.237437 0.937738
-124.210591 94.613037 11.219080 0.831264
-122.229167 94.613037 11.198097 0.659456
-120.247743 94.613037 11.110373 0.631203
-118.266319 94.613037 11.372623 0.571967
-116.284895 94.613037 11.496995 0.525240
-114.303471 94.613037 11.399593 0.593512
-112.322047 94.613037 0.000000 0.000000
-110.340623 94.613037 0.000000 0.000000
-108.359199 94.613037 0.000000 0.000000
-106.377775 94.613037 0.000000 0.000000
-104.396351 94.613037 0.000000 0.000000
-102.414927 94.613037 0.000000 0.000000
-100.433503 94.613037 0.000000 0.000000
-98.452079 94.613037 0.000000 0.000000
-96.470655 94.613037 0.000000 0.000000
-94.489231 94.613037 0.000000 0.000000
-92.507807 94.613037 0.000000 0.000000
-90.526383 94.613037 0.000000 0.000000
-88.544959 94.613037 11.405579 0.386878
-86.563536 94.613037 11.425431 0.439466
-84.582112 94.613037 11.468453 0.529239
-82.600688 94.613037 11.412320 0.438591
-80.619264 94.613037 11.448387 0.276565
-78.637840 94.613037 11.506998 0.328598
-76.656416 94.613037 11.514291 0.397747
-74.674992 94.613037 11.392436 0.366728
-72.693568 94.613037 11.307874 0.168678
-70.712144 94.613037 11.340631 0.076264
-68.730720 94.613037 11.495319 0.211732
-66.749296 94.613037 11.479304 0.204499
-64.767872 94.613037 11.415848 0.143153
-62.786448 94.613037 11.444652 0.143783
-60.805024 94.613037 11.369637 0.202487
-58.823600 94.613037 11.147312 0.059411
-56.842176 94.613037 11.351295 0.023042
-54.860752 94.613037 11.417688 0.184070
-52.879328 94.613037 11.459256 0.158344
-50.897904 94.613037 11.538540 0.072999
-48.916480 94.613037 11.484959 0.133061
-46.935056 94.613037 11.407594 0.162685
-44.953632 94.613037 11.449785 0.023963
-42.972208 94.613037 11.389612 -0.012780
-40.990784 94.613037 11.331290 0.105030
-39.009360 94.613037 11.350614 -0.010685
-37.027936 94.613037 11.368242 -0.191462
-35.046512 94.613037 11.222619 -0.176005
-33.065088 94.613037 11.305379 -0.208106
-31.083664 94.613037 11.389009 -0.200601
-29.102240 94.613037 11.270206 -0.149740
-27.120816 94.613037 11.229833 -0.014757
-25.139392 94.613037 11.237177 0.029863
-23.157968 94.613037 11.235751 -0.083533
-21.176544 94.613037 11.314884 -0.134332
-19.195120 94.613037 11.371522 -0.154434
-17.213696 94.613037 11.417638 -0.060273
-15.232272 94.613037 11.430356 0.046021
-13.250848 94.613037 0.000000 0.000000
-11.269424 94.613037 0.000000 0.000000
-9.288001 94.613037 0.000000 0.000000
-7.306577 94.613037 0.000000 0.000000
-5.325153 94.613037 0.000000 0.000000
-3.343729 94.613037 0.000000 0.000000
-1.362305 94.613037 11.205429 -0.114329
0.619119 94.613037 11.086832 0.015412
2.600543 94.613037 11.181144 0.065703
4.581967 94.613037 11.243384 -0.044041
6.563391 94.613037 11.212496 -0.110219
8.544815 94.613037 11.216023 -0.162449
10.526239 94.613037 11.135014 -0.201770
12.507663 94.613037 11.115642 -0.130096
14.489087 94.613037 11.150659 0.029989
16.470511 94.613037 11.155211 -0.011316
18.451935 94.613037 11.178177 -0.076599
20.433359 94.613037 11.270670 -0.060822
22.414783 94.613037 11.197742 0.009459
24.396207 94.613037 11.189322 0.047224
26.377631 94.613037 11.176072 -0.085770
28.359055 94.613037 11.117991 -0.125548
30.340479 94.613037 11.053094 0.096560
32.321903 94.613037 11.114417 0.153702
34.303327 94.613037 11.250303 0.161639
36.284751 94.613037 11.199039 0.076540
38.266175 94.613037 11.139793 -0.099510
40.247599 94.613037 11.186229 0.005183
42.229023 94.613037 11.072915 0.092011
44.210447 94.613037 10.995831 -0.055555
46.191871 94.613037 11.059028 -0.126488
48.173295 94.613037 11.111875 -0.064509
50.154719 94.613037 11.156238 -0.026470
52.136143 94.613037 11.123877 0.042811
54.117567 94.613037 11.138544 0.086059
56.098991 94.613037 11.187083 0.087092
58.080415 94.613037 11.146453 0.005568
60.061839 94.613037 11.131104 -0.008374
62.043263 94.613037 11.073746 0.037530
64.024687 94.613037 11.092376 0.032764
66.006110 94.613037 11.080128 0.063957
67.987534 94.613037 0.000000 0.000000
-132.136287 92.631613 11.495502 0.684928
-130.154863 92.631613 11.320165 0.672490
-128.173439 92.631613 11.290244 0.810743
-126.192015 92.631613 11.532681 0.930635
-124.210591 92.631613 11.282263 0.802209
-122.229167 92.631613 11.024215 0.535851
-120.247743 92.631613 10.976793 0.562450
-118.266319 92.631613 11.224755 0.773768
-116.284895 92.631613 11.396472 0.785847
-114.303471 92.631613 11.393952 0.830431
-112.322047 92.631613 0.000000 0.000000
-110.340623 92.631613 0.000000 0.000000
-108.359199 92.631613 0.000000 0.000000
-106.377775 92.631613 0.000000 0.000000
-104.396351 92.631613 0.000000 0.000000
-102.414927 92.631613 0.000000 0.000000
-100.433503 92.631613 0.000000 0.000000
-98.452079 92.631613 0.000000 0.000000
-96.470655 92.631613 0.000000 0.000000
-94.489231 92.631613 0.000000 0.000000
-92.507807 92.631613 0.000000 0.000000
-90.526383 92.631613 0.000000 0.000000
-88.544959 92.631613 11.462286 0.461586
-86.563536 92.631613 11.491442 0.465779
-84.582112 92.631613 11.455246 0.578526
-82.600688 92.631613 11.401746 0.400915
-80.619264 92.631613 11.461798 0.194189
-78.637840 92.631613 11.481090 0.280404
-76.656416 92.631613 11.422713 0.322523
-74.674992 92.631613 11.504680 0.320164
-72.693568 92.631613 11.479778 0.239249
-70.712144 92.631613 11.435730 0.089477
-68.730720 92.631613 11.444148 0.148860
-66.749296 92.631613 11.414508 0.197488
-64.767872 92.631613 11.380473 0.152254
-62.786448 92.631613 11.437272 0.114333
-60.805024 92.631613 11.297965 0.132172
-58.823600 92.631613 11.137280 0.125516
-56.842176 92.631613 11.374125 0.211959
-54.860752 92.631613 11.392595 0.202922
-52.879328 92.631613 11.502757 0.119805
-50.897904 92.631613 11.545428 0.122651
-48.916480 92.631613 11.491883 0.142645
-46.935056 92.631613 11.426109 0.099191
-44.953632 92.631613 11.450160 0.072757
-42.972208 92.631613 11.445291 0.125446
-40.990784 92.631613 11.362942 0.123290
-39.009360 92.631613 11.358017 0.054086
-37.027936 92.631613 11.450421 0.041493
-35.046512 92.631613 11.432875 -0.145511
-33.065088 92.631613 11.470487 -0.232991
-31.083664 92.631613 11.393785 -0.065003
-29.102240 92.631613 11.331487 0.137319
-27.120816 92.631613 11.363214 0.140376
-25.139392 92.631613 11.312458 -0.019053
-23.157968 92.631613 11.299083 -0.092880
-21.176544 92.631613 11.363978 -0.112064
-19.195120 92.631613 11.286497 -0.165716
-17.213696 92.631613 11.300898 -0.121589
-15.232272 92.631613 11.437989 -0.010646
-13.250848 92.631613 0.000000 0.000000
-11.269424 92.631613 0.000000 0.000000
-9.288001 92.631613 0.000000 0.000000
-7.306577 92.631613 0.000000 0.000000
-5.325153 92.631613 0.000000 0.000000
-3.343729 92.631613 0.000000 0.000000
-1.362305 92.631613 11.291907 -0.206790
0.619119 92.631613 11.111619 -0.059181
2.600543 92.631613 11.103945 -0.047318
4.581967 92.631613 11.207034 -0.192224
6.563391 92.631613 11.256832 -0.273438
8.544815 92.631613 11.202319 -0.199633
10.526239 92.631613 11.167039 -0.104032
12.507663 92.631613 11.198561 -0.050566
14.489087 92.631613 11.185869 -0.073534
16.470511 92.631613 11.134251 -0.132531
18.451935 92.631613 11.211130 -0.089140
20.433359 92.631613 11.258488 -0.071029
22.414783 92.631613 11.207050 -0.103539
24.396207 92.631613 11.194063 -0.073656
26.377631 92.631613 11.209088 -0.152410
28.359055 92.631613 11.167487 -0.222757
30.340479 92.631613 11.041651 -0.057012
32.321903 92.631613 11.089347 0.089184
34.303327 92.631613 11.235939 0.146118
36.284751 92.631613 11.263084 0.113767
38.266175 92.631613 11.239225 -0.048737
40.247599 92.631613 11.152702 -0.009349
42.229023 92.631613 10.974425 0.092586
44.210447 92.631613 10.934906 -0.028294
46.191871 92.631613 11.019276 -0.091279
48.173295 92.631613 11.011805 -0.013735
50.154719 92.631613 10.973611 0.009641
52.136143 92.631613 11.065581 0.064382
54.117567 92.631613 11.152958 0.068814
56.098991 92.631613 11.053873 -0.007389
58.080415 92.631613 11.059213 -0.091156
60.061839 92.631613 11.165226 -0.023096
62.043263 92.631613 11.163206 0.044961
64.024687 92.631613 11.184825 0.076342
66.006110 92.631613 11.160654 0.163969
67.987534 92.631613 0.000000 0.000000
-132.136287 90.650189 11.087378 0.647904
-130.154863 90.650189 11.314990 0.452874
-128.173439 90.650189 11.543663 0.455221
-126.192015 90.650189 11.430162 0.706181
-124.210591 90.650189 11.182461 0.675686
-122.229167 90.650189 10.990710 0.322424
-120.247743 90.650189 10.909116 0.434234
-118.266319 90.650189 10.959350 0.809501
-116.284895 90.650189 11.205883 0.858372
-114.303471 90.650189 11.364161 0.896421
-112.322047 90.650189 0.000000 0.000000
-110.340623 90.650189 0.000000 0.000000
-108.359199 90.650189 0.000000 0.000000
-106.377775 90.650189 0.000000 0.000000
-104.396351 90.650189 0.000000 0.000000
-102.414927 90.650189 0.000000 0.000000
-100.433503 90.650189 0.000000 0.000000
-98.452079 90.650189 0.000000 0.000000
-96.470655 90.650189 0.000000 0.000000
-94.489231 90.650189 0.000000 0.000000
-92.507807 90.650189 0.000000 0.000000
-90.526383 90.650189 0.000000 0.000000
-88.544959 90.650189 11.560071 0.553541
-86.563536 90.650189 11.505320 0.574719
-84.582112 90.650189 11.515877 0.446484
-82.600688 90.650189 11.467250 0.372770
-80.619264 90.650189 11.489101 0.278241
-78.637840 90.650189 11.404009 0.195783
-76.656416 90.650189 11.301119 0.106198
-74.674992 90.650189 11.599663 0.129720
-72.693568 90.650189 11.525627 0.278362
-70.712144 90.650189 11.443924 0.242858
-68.730720 90.650189 11.444612 0.293489
-66.749296 90.650189 11.413033 0.276026
-64.767872 90.650189 11.492424 0.216712
-62.786448 90.650189 11.450641 0.134626
-60.805024 90.650189 11.343402 0.097840
-58.823600 90.650189 11.359252 0.236032
-56.842176 90.650189 11.443455 0.298321
-54.860752 90.650189 11.367823 0.094767
-52.879328 90.650189 11.526667 0.014388
-50.897904 90.650189 11.496351 0.079184
-48.916480 90.650189 11.463908 0.040646
-46.935056 90.650189 11.483173 -0.016593
-44.953632 90.650189 11.481793 0.040426
-42.972208 90.650189 11.458154 0.069566
-40.990784 90.650189 11.364380 0.101360
-39.009360 90.650189 11.404781 0.190452
-37.027936 90.650189 11.430908 0.118565
-35.046512 90.650189 11.446135 -0.025814
-33.065088 90.650189 11.448084 -0.079022
-31.083664 90.650189 11.415150 -0.033500
-29.102240 90.650189 11.421724 0.082308
-27.120816 90.650189 11.448403 0.099384
-25.139392 90.650189 11.364042 0.010668
-23.157968 90.650189 11.324145 -0.058466
-21.176544 90.650189 11.357416 -0.168440
-19.195120 90.650189 11.262304 -0.210941
-17.213696 90.650189 11.280142 -0.141809
-15.232272 90.650189 11.422471 -0.061317
-13.250848 90.650189 0.000000 0.000000
-11.269424 90.650189 0.000000 0.000000
-9.288001 90.650189 0.000000 0.000000
-7.306577 90.650189 0.000000 0.000000
-5.325153 90.650189 0.000000 0.000000
-3.343729 90.650189 11.271052 -0.212884
-1.362305 90.650189 11.211708 -0.118626
0.619119 90.650189 11.172049 -0.072952
2.600543 90.650189 11.187383 -0.105237
4.581967 90.650189 11.200541 -0.138396
6.563391 90.650189 11.170655 -0.199919
8.544815 90.650189 11.134796 -0.139666
10.526239 90.650189 11.138064 -0.088404
12.507663 90.650189 11.255704 -0.078517
14.489087 90.650189 11.186418 -0.079327
16.470511 90.650189 11.118632 -0.137146
18.451935 90.650189 11.220534 -0.097493
20.433359 90.650189 11.124747 -0.073767
22.414783 90.650189 11.170506 -0.045017
24.396207 90.650189 11.205845 -0.150236
26.377631 90.650189 11.174115 -0.202875
28.359055 90.650189 11.107389 -0.189292
30.340479 90.650189 11.070210 -0.098122
32.321903 90.650189 11.137061 -0.039985
34.303327 90.650189 11.157075 -0.007540
36.284751 90.650189 11.236202 -0.013612
38.266175 90.650189 11.190310 -0.016745
40.247599 90.650189 11.046359 0.053946
42.229023 90.650189 10.934866 0.067810
44.210447 90.650189 10.995046 0.007925
46.191871 90.650189 11.131251 -0.033624
48.173295 90.650189 11.183475 0.108016
50.154719 90.650189 11.030681 0.128420
52.136143 90.650189 11.043107 -0.022868
54.117567 90.650189 11.111412 -0.169330
56.098991 90.650189 11.023621 -0.074942
58.080415 90.650189 11.029744 0.017075
60.061839 90.650189 11.102303 0.042554
62.043263 90.650189 11.193514 0.049624
64.024687 90.650189 11.227446 0.076749
66.006110 90.650189 11.167209 0.106331
67.987534 90.650189 0.000000 0.000000
-132.136287 88.668765 10.869744 0.919865
-130.154863 88.668765 11.048795 0.565895
-128.173439 88.668765 11.206351 0.264784
-126.192015 88.668765 11.043931 0.602924
-124.210591 88.668765 11.072385 0.624002
-122.229167 88.668765 11.264840 0.383971
-120.247743 88.668765 11.281613 0.634206
-118.266319 88.668765 11.204884 0.858895
-116.284895 88.668765 11.229499 0.758506
-114.303471 88.668765 11.259415 0.726489
-112.322047 88.668765 0.000000 0.000000
-110.340623 88.668765 0.000000 0.000000
-108.359199 88.668765 0.000000 0.000000
-106.377775 88.668765 0.000000 0.000000
-104.396351 88.668765 0.000000 0.000000
-102.414927 88.668765 0.000000 0.000000
-100.433503 88.668765 0.000000 0.000000
-98.452079 88.668765 0.000000 0.000000
-96.470655 88.668765 0.000000 0.000000
-94.489231 88.668765 0.000000 0.000000
-92.507807 88.668765 0.000000 0.000000
-90.526383 88.668765 11.575324 0.462819
-88.544959 88.668765 11.565227 0.504298
-86.563536 88.668765 11.528859 0.511140
-84.582112 88.668765 11.518813 0.411307
-82.600688 88.668765 11.524954 0.392279
-80.619264 88.668765 11.522536 0.344891
-78.637840 88.668765 11.370420 0.204017
-76.656416 88.668765 11.471084 0.107250
-74.674992 88.668765 11.624377 0.158978
-72.693568 88.668765 11.473730 0.249379
-70.712144 88.668765 11.409811 0.275255
-68.730720 88.668765 11.469970 0.354337
-66.749296 88.668765 11.583468 0.304372
-64.767872 88.668765 11.613019 0.166987
-62.786448 88.668765 11.469552 0.067707
-60.805024 88.668765 11.354330 0.145156
-58.823600 88.668765 11.499570 0.252755
-56.842176 88.668765 11.558963 0.127472
-54.860752 88.668765 11.441169 -0.065079
-52.879328 88.668765 11.498252 -0.066795
-50.897904 88.668765 11.482065 0.023435
-48.916480 88.668765 11.466473 0.037482
-46.935056 88.668765 11.517097 -0.005594
-44.953632 88.668765 11.456757 0.028342
-42.972208 88.668765 11.407374 0.061819
-40.990784 88.668765 11.475825 0.065871
-39.009360 88.668765 11.458683 0.085524
-37.027936 88.668765 11.373166 0.015092
-35.046512 88.668765 11.364881 -0.058495
-33.065088 88.668765 11.388803 -0.110953
-31.083664 88.668765 11.417455 -0.137033
-29.102240 88.668765 11.349065 -0.018724
-27.120816 88.668765 11.370528 0.081209
-25.139392 88.668765 11.355947 0.036208
-23.157968 88.668765 11.399503 -0.077627
-21.176544 88.668765 11.444847 -0.177077
-19.195120 88.668765 11.321321 -0.201693
-17.213696 88.668765 11.277568 -0.165404
-15.232272 88.668765 11.346292 -0.200207
-13.250848 88.668765 0.000000 0.000000
-11.269424 88.668765 0.000000 0.000000
-9.288001 88.668765 0.000000 0.000000
-7.306577 88.668765 0.000000 0.000000
-5.325153 88.668765 0.000000 0.000000
-3.343729 88.668765 11.203618 -0.195584
-1.362305 88.668765 11.290637 -0.112881
0.619119 88.668765 11.312312 -0.044312
2.600543 88.668765 11.224374 -0.130772
4.581967 88.668765 11.256577 -0.199467
6.563391 88.668765 11.125602 -0.166691
8.544815 88.668765 11.085087 -0.077625
10.526239 88.668765 11.169933 -0.088216
12.507663 88.668765 11.212752 -0.125116
14.489087 88.668765 11.179265 -0.068351
16.470511 88.668765 11.154799 -0.187000
18.451935 88.668765 11.158546 -0.188047
20.433359 88.668765 11.150849 -0.140518
22.414783 88.668765 11.163532 0.002930
24.396207 88.668765 11.151196 -0.045197
26.377631 88.668765 11.164721 -0.103258
28.359055 88.668765 11.139661 -0.046807
30.340479 88.668765 11.111098 -0.025382
32.321903 88.668765 11.210928 -0.014917
34.303327 88.668765 11.169662 0.002208
36.284751 88.668765 11.154727 0.022785
38.266175 88.668765 11.167191 -0.011038
40.247599 88.668765 11.097752 0.011558
42.229023 88.668765 11.068871 0.091526
44.210447 88.668765 11.140992 0.059846
46.191871 88.668765 11.242627 0.044251
48.173295 88.668765 11.304486 0.113885
50.154719 88.668765 11.189750 0.175784
52.136143 88.668765 11.167576 0.026452
54.117567 88.668765 11.147684 -0.128595
56.098991 88.668765 11.063608 0.062416
58.080415 88.668765 11.018924 0.229613
60.061839 88.668765 11.022585 0.115705
62.043263 88.668765 11.191793 0.001309
64.024687 88.668765 11.157130 0.044668
66.006110 88.668765 11.026664 0.138768
67.987534 88.668765 0.000000 0.000000
-132.136287 86.687341 11.010543 1.102068
-130.154863 86.687341 11.270023 0.763692
-128.173439 86.687341 11.138407 0.129072
-126.192015 86.687341 11.206235 0.472332
-124.210591 86.687341 11.192772 0.616384
-122.229167 86.687341 11.279186 0.646153
-120.247743 86.687341 11.417722 0.785545
-118.266319 86.687341 11.367027 0.839925
-116.284895 86.687341 11.287951 0.791933
-114.303471 86.687341 11.270484 0.693745
-112.322047 86.687341 0.000000 0.000000
-110.340623 86.687341 0.000000 0.000000
-108.359199 86.687341 0.000000 0.000000
-106.377775 86.687341 0.000000 0.000000
-104.396351 86.687341 0.000000 0.000000
-102.414927 86.687341 0.000000 0.000000
-100.433503 86.687341 0.000000 0.000000
-98.452079 86.687341 0.000000 0.000000
-96.470655 86.687341 0.000000 0.000000
-94.489231 86.687341 0.000000 0.000000
-92.507807 86.687341 0.000000 0.000000
-90.526383 86.687341 11.360071 0.539785
-88.544959 86.687341 11.407180 0.485234
-86.563536 86.687341 11.455879 0.417709
-84.582112 86.687341 11.431277 0.420844
-82.600688 86.687341 11.406341 0.322748
-80.619264 86.687341 11.443856 0.287749
-78.637840 86.687341 11.427773 0.326997
-76.656416 86.687341 11.586770 0.320861
-74.674992 86.687341 11.606104 0.287260
-72.693568 86.687341 11.510782 0.232263
-70.712144 86.687341 11.432480 0.291641
-68.730720 86.687341 11.512311 0.367562
-66.749296 86.687341 11.660058 0.225905
-64.767872 86.687341 11.610147 0.063659
-62.786448 86.687341 11.523490 0.080996
-60.805024 86.687341 11.409790 0.175738
-58.823600 86.687341 11.488551 0.152336
-56.842176 86.687341 11.560693 0.054814
-54.860752 86.687341 11.498609 0.011063
-52.879328 86.687341 11.569624 0.012854
-50.897904 86.687341 11.577508 0.008854
-48.916480 86.687341 11.457377 0.040455
-46.935056 86.687341 11.504213 -0.014817
-44.953632 86.687341 11.485082 0.012045
-42.972208 86.687341 11.397694 0.092552
-40.990784 86.687341 11.428464 0.032658
-39.009360 86.687341 11.403134 -0.028372
-37.027936 86.687341 11.393667 -0.072800
-35.046512 86.687341 11.407198 -0.188613
-33.065088 86.687341 11.453598 -0.174717
-31.083664 86.687341 11.445878 0.013976
-29.102240 86.687341 11.325982 0.051451
-27.120816 86.687341 11.319006 0.004176
-25.139392 86.687341 11.344906 -0.004553
-23.157968 86.687341 11.359169 -0.091395
-21.176544 86.687341 11.375413 -0.134754
-19.195120 86.687341 11.347100 -0.153174
-17.213696 86.687341 11.251730 -0.241724
-15.232272 86.687341 11.272021 -0.224719
-13.250848 86.687341 0.000000 0.000000
-11.269424 86.687341 0.000000 0.000000
-9.288001 86.687341 0.000000 0.000000
-7.306577 86.687341 0.000000 0.000000
-5.325153 86.687341 0.000000 0.000000
-3.343729 86.687341 11.244761 -0.217953
-1.362305 86.687341 11.286505 -0.124796
0.619119 86.687341 11.233981 -0.066466
2.600543 86.687341 11.168447 -0.094415
4.581967 86.687341 11.216846 -0.160193
6.563391 86.687341 11.153089 -0.224380
8.544815 86.687341 11.238575 -0.193880
10.526239 86.687341 11.336280 -0.181935
12.507663 86.687341 11.243988 -0.145162
14.489087 86.687341 11.143401 -0.077744
16.470511 86.687341 11.204018 -0.110061
18.451935 86.687341 11.203115 -0.093578
20.433359 86.687341 11.183187 -0.161454
22.414783 86.687341 11.165009 -0.124278
24.396207 86.687341 11.112705 -0.055216
26.377631 86.687341 11.114786 -0.001932
28.359055 86.687341 11.160095 0.047076
30.340479 86.687341 11.174212 -0.007537
32.321903 86.687341 11.282438 -0.063447
34.303327 86.687341 11.214250 0.017689
36.284751 86.687341 11.081562 -0.019717
38.266175 86.687341 11.111581 -0.080430
40.247599 86.687341 11.162152 -0.076430
42.229023 86.687341 11.189350 -0.024893
44.210447 86.687341 11.143922 -0.008793
46.191871 86.687341 11.201104 -0.070575
48.173295 86.687341 11.193905 -0.034938
50.154719 86.687341 11.157380 0.086242
52.136143 86.687341 11.177505 0.043725
54.117567 86.687341 11.090899 0.020220
56.098991 86.687341 11.053085 0.184880
58.080415 86.687341 11.112861 0.181527
60.061839 86.687341 11.099554 0.036683
62.043263 86.687341 11.161658 -0.108836
64.024687 86.687341 11.098873 -0.024742
66.006110 86.687341 10.990153 0.200879
67.987534 86.687341 0.000000 0.000000
-132.136287 84.705917 11.310762 0.874324
-130.154863 84.705917 11.731182 0.475421
-128.173439 84.705917 11.923678 0.276206
-126.192015 84.705917 11.517412 0.636209
-124.210591 84.705917 11.359341 0.701823
-122.229167 84.705917 11.201890 0.769825
-120.247743 84.705917 11.314487 0.714130
-118.266319 84.705917 11.325482 0.778508
-116.284895 84.705917 11.283797 0.868660
-114.303471 84.705917 11.264326 0.832360
-112.322047 84.705917 0.000000 0.000000
-110.340623 84.705917 0.000000 0.000000
-108.359199 84.705917 0.000000 0.000000
-106.377775 84.705917 0.000000 0.000000
-104.396351 84.705917 0.000000 0.000000
-102.414927 84.705917 0.000000 0.000000
-100.433503 84.705917 0.000000 0.000000