TITLE = "B00002"
VARIABLES = "position", "position(2)", "Vx", "Vy"
ZONE T="Frame 0", I=102, J=78
-132.136287 98.575885 0.000000 0.000000
-130.154863 98.575885 4.991079 4.265272
-128.173439 98.575885 0.733652 0.683266
-126.192015 98.575885 0.262030 0.202217
-124.210591 98.575885 0.233840 0.181484
-122.229167 98.575885 0.194218 0.169276
-120.247743 98.575885 0.217431 0.184365
-118.266319 98.575885 0.205693 0.135142
-116.284895 98.575885 0.195371 0.211815
-114.303471 98.575885 0.000000 0.000000
-112.322047 98.575885 0.000000 0.000000
-110.340623 98.575885 0.000000 0.000000
-108.359199 98.575885 0.000000 0.000000
-106.377775 98.575885 0.000000 0.000000
-104.396351 98.575885 0.000000 0.000000
-102.414927 98.575885 0.000000 0.000000
-100.433503 98.575885 0.000000 0.000000
-98.452079 98.575885 0.000000 0.000000
-96.470655 98.575885 0.000000 0.000000
-94.489231 98.575885 0.000000 0.000000
-92.507807 98.575885 0.000000 0.000000
-90.526383 98.575885 0.000000 0.000000
-88.544959 98.575885 0.000000 0.000000
-86.563536 98.575885 0.136152 0.087001
-84.582112 98.575885 0.118789 0.052267
-82.600688 98.575885 0.136201 0.108389
-80.619264 98.575885 0.151837 0.105090
-78.637840 98.575885 0.131801 0.096257
-76.656416 98.575885 0.137679 0.108786
-74.674992 98.575885 0.143090 0.115394
-72.693568 98.575885 0.095839 0.096920
-70.712144 98.575885 0.183054 0.118599
-68.730720 98.575885 0.134158 0.130359
-66.749296 98.575885 0.122766 0.104477
-64.767872 98.575885 0.137527 0.132134
-62.786448 98.575885 0.159684 0.131617
-60.805024 98.575885 0.185023 0.151910
-58.823600 98.575885 0.159449 0.172352
-56.842176 98.575885 0.187749 0.186116
-54.860752 98.575885 0.159268 0.147383
-52.879328 98.575885 0.119204 0.143415
-50.897904 98.575885 0.133201 0.167483
-48.916480 98.575885 0.153522 0.121962
-46.935056 98.575885 0.134985 0.124897
-44.953632 98.575885 0.120001 0.150838
-42.972208 98.575885 0.134353 0.119790
-40.990784 98.575885 0.179870 0.113439
-39.009360 98.575885 0.171497 0.172700
-37.027936 98.575885 0.141578 0.144350
-35.046512 98.575885 0.116601 0.093895
-33.065088 98.575885 0.167118 0.136676
-31.083664 98.575885 0.137960 0.106020
-29.102240 98.575885 0.149921 0.124485
-27.120816 98.575885 0.151070 0.167505
-25.139392 98.575885 0.152228 0.112759
-23.157968 98.575885 0.152115 0.111265
-21.176544 98.575885 0.172520 0.174653
-19.195120 98.575885 0.145507 0.146335
-17.213696 98.575885 0.145933 0.193978
-15.232272 98.575885 0.000000 0.000000
-13.250848 98.575885 0.000000 0.000000
-11.269424 98.575885 0.000000 0.000000
-9.288001 98.575885 0.000000 0.000000
-7.306577 98.575885 0.000000 0.000000
-5.325153 98.575885 0.000000 0.000000
-3.343729 98.575885 0.000000 0.000000
-1.362305 98.575885 0.106826 0.139614
0.619119 98.575885 0.077915 0.099573
2.600543 98.575885 0.078541 0.130946
4.581967 98.575885 0.125445 0.107003
6.563391 98.575885 0.140183 0.163832
8.544815 98.575885 0.070010 0.124877
10.526239 98.575885 0.123487 0.118004
12.507663 98.575885 0.114258 0.089519
14.489087 98.575885 0.084781 0.155808
16.470511 98.575885 0.085897 0.174877
18.451935 98.575885 0.075257 0.159022
20.433359 98.575885 0.100332 0.143109
22.414783 98.575885 0.111078 0.121302
24.396207 98.575885 0.069490 0.129269
26.377631 98.575885 0.080812 0.114213
28.359055 98.575885 0.086912 0.132961
30.340479 98.575885 0.089099 0.150161
32.321903 98.575885 0.087368 0.116705
34.303327 98.575885 0.078369 0.177409
36.284751 98.575885 0.090986 0.119268
38.266175 98.575885 0.091875 0.145811
40.247599 98.575885 0.105564 0.120316
42.229023 98.575885 0.106215 0.116173
44.210447 98.575885 0.102155 0.102244
46.191871 98.575885 0.105140 0.137426
48.173295 98.575885 0.081547 0.116463
50.154719 98.575885 0.078058 0.131838
52.136143 98.575885 0.122197 0.163716
54.117567 98.575885 0.112524 0.145673
56.098991 98.575885 0.115556 0.192581
58.080415 98.575885 0.122743 0.151667
60.061839 98.575885 0.078292 0.168275
62.043263 98.575885 0.107527 0.166011
64.024687 98.575885 0.083781 0.129920
66.006110 98.575885 0.110118 0.155874
67.987534 98.575885 0.000000 0.000000
-132.136287 96.594461 8.325653 8.719270
-130.154863 96.594461 5.268504 5.403293
-128.173439 96.594461 5.944434 3.632702
-126.192015 96.594461 0.257701 0.158141
-124.210591 96.594461 0.249509 0.177810
-122.229167 96.594461 0.210984 0.126563
-120.247743 96.594461 0.173720 0.115827
-118.266319 96.594461 0.166486 0.115252
-116.284895 96.594461 0.204604 0.134515
-114.303471 96.594461 0.000000 0.000000
-112.322047 96.594461 0.000000 0.000000
-110.340623 96.594461 0.000000 0.000000
-108.359199 96.594461 0.000000 0.000000
-106.377775 96.594461 0.000000 0.000000
-104.396351 96.594461 0.000000 0.000000
-102.414927 96.594461 0.000000 0.000000
-100.433503 96.594461 0.000000 0.000000
-98.452079 96.594461 0.000000 0.000000
-96.470655 96.594461 0.000000 0.000000
-94.489231 96.594461 0.000000 0.000000
-92.507807 96.594461 0.000000 0.000000
-90.526383 96.594461 0.000000 0.000000
-88.544959 96.594461 0.094111 0.065401
-86.563536 96.594461 0.106319 0.068090
-84.582112 96.594461 0.124915 0.061857
-82.600688 96.594461 0.115299 0.066350
-80.619264 96.594461 0.125890 0.127168
-78.637840 96.594461 0.087613 0.086473
-76.656416 96.594461 0.110944 0.085833
-74.674992 96.594461 0.117024 0.118600
-72.693568 96.594461 0.091588 0.079063
-70.712144 96.594461 0.143547 0.082588
-68.730720 96.594461 0.128225 0.108306
-66.749296 96.594461 0.116521 0.073836
-64.767872 96.594461 0.117715 0.108256
-62.786448 96.594461 0.120203 0.124562
-60.805024 96.594461 0.190523 0.105534
-58.823600 96.594461 0.123632 0.163794
-56.842176 96.594461 0.118705 0.115489
-54.860752 96.594461 0.108567 0.143178
-52.879328 96.594461 0.106523 0.128777
-50.897904 96.594461 0.083721 0.102401
-48.916480 96.594461 0.113513 0.119448
-46.935056 96.594461 0.123663 0.101266
-44.953632 96.594461 0.091022 0.126508
-42.972208 96.594461 0.103909 0.118821
-40.990784 96.594461 0.139485 0.096028
-39.009360 96.594461 0.169943 0.139022
-37.027936 96.594461 0.142511 0.168238
-35.046512 96.594461 0.122427 0.147210
-33.065088 96.594461 0.146062 0.139009
-31.083664 96.594461 0.143647 0.100717
-29.102240 96.594461 0.138911 0.140414
-27.120816 96.594461 0.144911 0.126969
-25.139392 96.594461 0.116489 0.118793
-23.157968 96.594461 0.167677 0.097277
-21.176544 96.594461 0.118475 0.152696
-19.195120 96.594461 0.120031 0.153056
-17.213696 96.594461 0.154962 0.142294
-15.232272 96.594461 0.000000 0.000000
-13.250848 96.594461 0.000000 0.000000
-11.269424 96.594461 0.000000 0.000000
-9.288001 96.594461 0.000000 0.000000
-7.306577 96.594461 0.000000 0.000000
-5.325153 96.594461 0.000000 0.000000
-3.343729 96.594461 0.000000 0.000000
-1.362305 96.594461 0.121288 0.118160
0.619119 96.594461 0.072032 0.156785
2.600543 96.594461 0.083326 0.102924
4.581967 96.594461 0.075934 0.089936
6.563391 96.594461 0.104223 0.133338
8.544815 96.594461 0.109281 0.117336
10.526239 96.594461 0.101061 0.094491
12.507663 96.594461 0.093651 0.100741
14.489087 96.594461 0.106982 0.129339
16.470511 96.594461 0.089641 0.113679
18.451935 96.594461 0.089651 0.120746
20.433359 96.594461 0.094180 0.106808
22.414783 96.594461 0.098829 0.137322
24.396207 96.594461 0.065102 0.097685
26.377631 96.594461 0.058236 0.111454
28.359055 96.594461 0.074244 0.122724
30.340479 96.594461 0.067115 0.089751
32.321903 96.594461 0.090096 0.117669
34.303327 96.594461 0.074603 0.133085
36.284751 96.594461 0.055288 0.130032
38.266175 96.594461 0.090006 0.144714
40.247599 96.594461 0.093181 0.145806
42.229023 96.594461 0.112460 0.129467
44.210447 96.594461 0.087379 0.132537
46.191871 96.594461 0.078284 0.137142
48.173295 96.594461 0.097206 0.083651
50.154719 96.594461 0.087188 0.101262
52.136143 96.594461 0.062630 0.150609
54.117567 96.594461 0.086185 0.081788
56.098991 96.594461 0.112452 0.140553
58.080415 96.594461 0.098003 0.110158
60.061839 96.594461 0.102859 0.136670
62.043263 96.594461 0.099079 0.111635
64.024687 96.594461 0.068801 0.133945
66.006110 96.594461 0.075159 0.121029
67.987534 96.594461 0.000000 0.000000
-132.136287 94.613037 8.250824 7.569256
-130.154863 94.613037 8.704823 8.296425
-128.173439 94.613037 2.023844 4.737252
-126.192015 94.613037 4.620218 1.006506
-124.210591 94.613037 0.224228 0.132410
-122.229167 94.613037 0.228207 0.150000
-120.247743 94.613037 0.197956 0.119524
-118.266319 94.613037 0.166211 0.105050
-116.284895 94.613037 0.196462 0.131685
-114.303471 94.613037 0.000000 0.000000
-112.322047 94.613037 0.000000 0.000000
-110.340623 94.613037 0.000000 0.000000
-108.359199 94.613037 0.000000 0.000000
-106.377775 94.613037 0.000000 0.000000
-104.396351 94.613037 0.000000 0.000000
-102.414927 94.613037 0.000000 0.000000
-100.433503 94.613037 0.000000 0.000000
-98.452079 94.613037 0.000000 0.000000
-96.470655 94.613037 0.000000 0.000000
-94.489231 94.613037 0.000000 0.000000
-92.507807 94.613037 0.000000 0.000000
-90.526383 94.613037 0.000000 0.000000
-88.544959 94.613037 0.126545 0.075268
-86.563536 94.613037 0.114686 0.109270
-84.582112 94.613037 0.094512 0.081101
-82.600688 94.613037 0.119963 0.089678
-80.619264 94.613037 0.086650 0.122576
-78.637840 94.613037 0.092952 0.082328
-76.656416 94.613037 0.084032 0.080863
-74.674992 94.613037 0.138118 0.093672
-72.693568 94.613037 0.111936 0.085708
-70.712144 94.613037 0.132093 0.115902
-68.730720 94.613037 0.143693 0.103806
-66.749296 94.613037 0.128688 0.098941
-64.767872 94.613037 0.110103 0.100524
-62.786448 94.613037 0.105664 0.129093
-60.805024 94.613037 0.102694 0.121574
-58.823600 94.613037 0.165344 0.153548
-56.842176 94.613037 0.132535 0.141836
-54.860752 94.613037 0.125035 0.142883
-52.879328 94.613037 0.138158 0.105554
-50.897904 94.613037 0.098680 0.115921
-48.916480 94.613037 0.127103 0.122094
-46.935056 94.613037 0.117649 0.109824
-44.953632 94.613037 0.111844 0.083926
-42.972208 94.613037 0.108600 0.111436
-40.990784 94.613037 0.125702 0.100573
-39.009360 94.613037 0.149479 0.132744
-37.027936 94.613037 0.176131 0.158697
-35.046512 94.613037 0.156410 0.130416
-33.065088 94.613037 0.106225 0.115640
-31.083664 94.613037 0.123952 0.134677
-29.102240 94.613037 0.094170 0.122413
-27.120816 94.613037 0.139699 0.107645
-25.139392 94.613037 0.118135 0.129052
-23.157968 94.613037 0.135912 0.132589
-21.176544 94.613037 0.113140 0.096837
-19.195120 94.613037 0.116624 0.126525
-17.213696 94.613037 0.109074 0.108851
-15.232272 94.613037 0.151228 0.130124
-13.250848 94.613037 0.000000 0.000000
-11.269424 94.613037 0.000000 0.000000
-9.288001 94.613037 0.000000 0.000000
-7.306577 94.613037 0.000000 0.000000
-5.325153 94.613037 0.000000 0.000000
-3.343729 94.613037 0.000000 0.000000
-1.362305 94.613037 0.129467 0.135905
0.619119 94.613037 0.107730 0.140223
2.600543 94.613037 0.082224 0.114054
4.581967 94.613037 0.077614 0.083241
6.563391 94.613037 0.113392 0.120561
8.544815 94.613037 0.105211 0.159468
10.526239 94.613037 0.109277 0.128547
12.507663 94.613037 0.130025 0.131583
14.489087 94.613037 0.134917 0.123706
16.470511 94.613037 0.069542 0.104758
18.451935 94.613037 0.100086 0.140628
20.433359 94.613037 0.087436 0.143803
22.414783 94.613037 0.077726 0.144351
24.396207 94.613037 0.084688 0.093890
26.377631 94.613037 0.052198 0.138251
28.359055 94.613037 0.069519 0.099231
30.340479 94.613037 0.082408 0.145004
32.321903 94.613037 0.086065 0.114794
34.303327 94.613037 0.102458 0.117510
36.284751 94.613037 0.067478 0.130229
38.266175 94.613037 0.089413 0.145864
40.247599 94.613037 0.060562 0.129458
42.229023 94.613037 0.105118 0.128673
44.210447 94.613037 0.056224 0.124130
46.191871 94.613037 0.078724 0.124420
48.173295 94.613037 0.096975 0.129854
50.154719 94.613037 0.096502 0.098981
52.136143 94.613037 0.097219 0.119528
54.117567 94.613037 0.078189 0.126840
56.098991 94.613037 0.118646 0.150097
58.080415 94.613037 0.112971 0.155925
60.061839 94.613037 0.097396 0.101437
62.043263 94.613037 0.107208 0.092697
64.024687 94.613037 0.075818 0.151908
66.006110 94.613037 0.072313 0.126144
67.987534 94.613037 0.000000 0.000000
-132.136287 92.631613 9.188000 9.847127
-130.154863 92.631613 7.524921 6.377761
-128.173439 92.631613 7.072763 4.515831
-126.192015 92.631613 0.288038 0.362421
-124.210591 92.631613 5.324340 1.906719
-122.229167 92.631613 0.202890 0.186453
-120.247743 92.631613 1.891315 3.394784
-118.266319 92.631613 0.131119 0.118379
-116.284895 92.631613 0.212934 0.160470
-114.303471 92.631613 0.000000 0.000000
-112.322047 92.631613 0.000000 0.000000
-110.340623 92.631613 0.000000 0.000000
-108.359199 92.631613 0.000000 0.000000
-106.377775 92.631613 0.000000 0.000000
-104.396351 92.631613 0.000000 0.000000
-102.414927 92.631613 0.000000 0.000000
-100.433503 92.631613 0.000000 0.000000
-98.452079 92.631613 0.000000 0.000000
-96.470655 92.631613 0.000000 0.000000
-94.489231 92.631613 0.000000 0.000000
-92.507807 92.631613 0.000000 0.000000
-90.526383 92.631613 0.000000 0.000000
-88.544959 92.631613 0.125250 0.094957
-86.563536 92.631613 0.128754 0.074619
-84.582112 92.631613 0.101371 0.062266
-82.600688 92.631613 0.118643 0.107392
-80.619264 92.631613 0.151406 0.125001
-78.637840 92.631613 0.107877 0.080704
-76.656416 92.631613 0.114914 0.134881
-74.674992 92.631613 0.109999 0.085069
-72.693568 92.631613 0.127153 0.082976
-70.712144 92.631613 0.129156 0.121587
-68.730720 92.631613 0.140688 0.106590
-66.749296 92.631613 0.128952 0.112594
-64.767872 92.631613 0.150501 0.119037
-62.786448 92.631613 0.118441 0.128988
-60.805024 92.631613 0.108699 0.110240
-58.823600 92.631613 0.151855 0.138291
-56.842176 92.631613 0.143678 0.119561
-54.860752 92.631613 0.157630 0.115989
-52.879328 92.631613 0.121889 0.126640
-50.897904 92.631613 0.126775 0.115507
-48.916480 92.631613 0.106038 0.108131
-46.935056 92.631613 0.096529 0.103881
-44.953632 92.631613 0.097111 0.092110
-42.972208 92.631613 0.080820 0.088678
-40.990784 92.631613 0.124987 0.114515
-39.009360 92.631613 0.118306 0.130577
-37.027936 92.631613 0.111381 0.103234
-35.046512 92.631613 0.140680 0.080664
-33.065088 92.631613 0.117153 0.132698
-31.083664 92.631613 0.126542 0.133930
-29.102240 92.631613 0.133612 0.129670
-27.120816 92.631613 0.091151 0.169485
-25.139392 92.631613 0.102456 0.115242
-23.157968 92.631613 0.098246 0.109053
-21.176544 92.631613 0.118883 0.102164
-19.195120 92.631613 0.108359 0.124058
-17.213696 92.631613 0.119748 0.124070
-15.232272 92.631613 0.123195 0.110571
-13.250848 92.631613 0.000000 0.000000
-11.269424 92.631613 0.000000 0.000000
-9.288001 92.631613 0.000000 0.000000
-7.306577 92.631613 0.000000 0.000000
-5.325153 92.631613 0.000000 0.000000
-3.343729 92.631613 0.000000 0.000000
-1.362305 92.631613 0.078502 0.095714
0.619119 92.631613 0.079863 0.104888
2.600543 92.631613 0.052505 0.089478
4.581967 92.631613 0.085333 0.128339
6.563391 92.631613 0.121710 0.155437
8.544815 92.631613 0.133875 0.113356
10.526239 92.631613 0.076240 0.105157
12.507663 92.631613 0.124623 0.157884
14.489087 92.631613 0.132081 0.163906
16.470511 92.631613 0.097585 0.122027
18.451935 92.631613 0.113603 0.087289
20.433359 92.631613 0.113962 0.108822
22.414783 92.631613 0.058003 0.109984
24.396207 92.631613 0.082488 0.156530
26.377631 92.631613 0.073637 0.153277
28.359055 92.631613 0.085801 0.129996
30.340479 92.631613 0.066917 0.131684
32.321903 92.631613 0.075031 0.081611
34.303327 92.631613 0.108172 0.093610
36.284751 92.631613 0.102051 0.107294
38.266175 92.631613 0.081168 0.114288
40.247599 92.631613 0.089927 0.136108
42.229023 92.631613 0.066706 0.103787
44.210447 92.631613 0.053415 0.102332
46.191871 92.631613 0.061486 0.138972
48.173295 92.631613 0.085855 0.131640
50.154719 92.631613 0.092796 0.117576
52.136143 92.631613 0.084988 0.128068
54.117567 92.631613 0.111735 0.094645
56.098991 92.631613 0.100697 0.140534
58.080415 92.631613 0.079972 0.154990
60.061839 92.631613 0.064418 0.110655
62.043263 92.631613 0.091802 0.133985
64.024687 92.631613 0.070038 0.114781
66.006110 92.631613 0.070255 0.126879
67.987534 92.631613 0.000000 0.000000
-132.136287 90.650189 9.464067 7.437702
-130.154863 90.650189 8.083815 4.788224
-128.173439 90.650189 7.340127 5.945161
-126.192015 90.650189 0.230788 0.158601
-124.210591 90.650189 0.237360 0.167196
-122.229167 90.650189 0.238045 0.163447
-120.247743 90.650189 0.139471 0.124784
-118.266319 90.650189 0.154290 0.112099
-116.284895 90.650189 0.176265 0.152513
-114.303471 90.650189 0.212679 0.175135
-112.322047 90.650189 0.000000 0.000000
-110.340623 90.650189 0.000000 0.000000
-108.359199 90.650189 0.000000 0.000000
-106.377775 90.650189 0.000000 0.000000
-104.396351 90.650189 0.000000 0.000000
-102.414927 90.650189 0.000000 0.000000
-100.433503 90.650189 0.000000 0.000000
-98.452079 90.650189 0.000000 0.000000
-96.470655 90.650189 0.000000 0.000000
-94.489231 90.650189 0.000000 0.000000
-92.507807 90.650189 0.000000 0.000000
-90.526383 90.650189 0.000000 0.000000
-88.544959 90.650189 0.128200 0.073097
-86.563536 90.650189 0.128641 0.097473
-84.582112 90.650189 0.097279 0.071037
-82.600688 90.650189 0.098006 0.102723
-80.619264 90.650189 0.127463 0.135475
-78.637840 90.650189 0.105338 0.077209
-76.656416 90.650189 0.125073 0.151850
-74.674992 90.650189 0.118852 0.143347
-72.693568 90.650189 0.109475 0.112621
-70.712144 90.650189 0.084162 0.079457
-68.730720 90.650189 0.158046 0.078584
-66.749296 90.650189 0.125055 0.088607
-64.767872 90.650189 0.095440 0.077745
-62.786448 90.650189 0.097284 0.140053
-60.805024 90.650189 0.098943 0.095031
-58.823600 90.650189 0.129024 0.137337
-56.842176 90.650189 0.118296 0.100136
-54.860752 90.650189 0.140164 0.107481
-52.879328 90.650189 0.088354 0.116670
-50.897904 90.650189 0.139066 0.111406
-48.916480 90.650189 0.083348 0.085139
-46.935056 90.650189 0.114894 0.104687
-44.953632 90.650189 0.103011 0.099275
-42.972208 90.650189 0.105298 0.074678
-40.990784 90.650189 0.091377 0.108249
-39.009360 90.650189 0.101663 0.126164
-37.027936 90.650189 0.110158 0.111991
-35.046512 90.650189 0.125232 0.118609
-33.065088 90.650189 0.096699 0.135902
-31.083664 90.650189 0.098063 0.141356
-29.102240 90.650189 0.121505 0.104957
-27.120816 90.650189 0.110035 0.169549
-25.139392 90.650189 0.109631 0.122151
-23.157968 90.650189 0.082435 0.103587
-21.176544 90.650189 0.075128 0.074914
-19.195120 90.650189 0.111414 0.137118
-17.213696 90.650189 0.100779 0.130617
-15.232272 90.650189 0.121636 0.131222
-13.250848 90.650189 0.000000 0.000000
-11.269424 90.650189 0.000000 0.000000
-9.288001 90.650189 0.000000 0.000000
-7.306577 90.650189 0.000000 0.000000
-5.325153 90.650189 0.000000 0.000000
-3.343729 90.650189 0.000000 0.000000
-1.362305 90.650189 0.096351 0.095032
0.619119 90.650189 0.073553 0.088247
2.600543 90.650189 0.079253 0.132576
4.581967 90.650189 0.100891 0.118589
6.563391 90.650189 0.105246 0.091890
8.544815 90.650189 0.103465 0.114016
10.526239 90.650189 0.095431 0.101016
12.507663 90.650189 0.081224 0.125029
14.489087 90.650189 0.104493 0.142194
16.470511 90.650189 0.092654 0.138504
18.451935 90.650189 0.077471 0.166628
20.433359 90.650189 0.079152 0.078391
22.414783 90.650189 0.069586 0.092323
24.396207 90.650189 0.090081 0.154135
26.377631 90.650189 0.085609 0.100807
28.359055 90.650189 0.079865 0.111789
30.340479 90.650189 0.064448 0.116305
32.321903 90.650189 0.088217 0.128821
34.303327 90.650189 0.101679 0.093957
36.284751 90.650189 0.095788 0.105836
38.266175 90.650189 0.086065 0.062291
40.247599 90.650189 0.092473 0.128915
42.229023 90.650189 0.071247 0.115328
44.210447 90.650189 0.083690 0.168005
46.191871 90.650189 0.054993 0.085491
48.173295 90.650189 0.068113 0.119392
50.154719 90.650189 0.095021 0.105253
52.136143 90.650189 0.063718 0.152389
54.117567 90.650189 0.103974 0.128003
56.098991 90.650189 0.078252 0.130026
58.080415 90.650189 0.095177 0.101909
60.061839 90.650189 0.063851 0.092458
62.043263 90.650189 0.089256 0.124529
64.024687 90.650189 0.080720 0.108867
66.006110 90.650189 0.088774 0.159591
67.987534 90.650189 0.000000 0.000000
-132.136287 88.668765 7.810593 11.100877
-130.154863 88.668765 8.621209 4.913794
-128.173439 88.668765 4.730897 2.638654
-126.192015 88.668765 1.222797 4.087723
-124.210591 88.668765 0.162003 0.144927
-122.229167 88.668765 0.214918 0.161475
-120.247743 88.668765 0.194383 0.141568
-118.266319 88.668765 0.176761 0.116267
-116.284895 88.668765 0.160650 0.117531
-114.303471 88.668765 0.167802 0.156593
-112.322047 88.668765 0.000000 0.000000
-110.340623 88.668765 0.000000 0.000000
-108.359199 88.668765 0.000000 0.000000
-106.377775 88.668765 0.000000 0.000000
-104.396351 88.668765 0.000000 0.000000
-102.414927 88.668765 0.000000 0.000000
-100.433503 88.668765 0.000000 0.000000
-98.452079 88.668765 0.000000 0.000000
-96.470655 88.668765 0.000000 0.000000
-94.489231 88.668765 0.000000 0.000000
-92.507807 88.668765 0.000000 0.000000
-90.526383 88.668765 0.000000 0.000000
-88.544959 88.668765 0.158248 0.101307
-86.563536 88.668765 0.114539 0.069794
-84.582112 88.668765 0.062930 0.109458
-82.600688 88.668765 0.120229 0.070847
-80.619264 88.668765 0.107345 0.073908
-78.637840 88.668765 0.097041 0.083816
-76.656416 88.668765 0.117352 0.126817
-74.674992 88.668765 0.105418 0.154650
-72.693568 88.668765 0.101108 0.102377
-70.712144 88.668765 0.073931 0.065534
-68.730720 88.668765 0.142839 0.086095
-66.749296 88.668765 0.114338 0.071834
-64.767872 88.668765 0.117360 0.064512
-62.786448 88.668765 0.068211 0.120738
-60.805024 88.668765 0.086194 0.099783
-58.823600 88.668765 0.098932 0.097415
-56.842176 88.668765 0.127389 0.097169
-54.860752 88.668765 0.086546 0.117234
-52.879328 88.668765 0.089480 0.088017
-50.897904 88.668765 0.127315 0.090898
-48.916480 88.668765 0.099285 0.070815
-46.935056 88.668765 0.086045 0.073760
-44.953632 88.668765 0.091560 0.121846
-42.972208 88.668765 0.106032 0.087236
-40.990784 88.668765 0.122030 0.093821
-39.009360 88.668765 0.121554 0.120224
-37.027936 88.668765 0.086132 0.085352
-35.046512 88.668765 0.129738 0.106071
-33.065088 88.668765 0.088477 0.093067
-31.083664 88.668765 0.101418 0.113500
-29.102240 88.668765 0.098350 0.084571
-27.120816 88.668765 0.107119 0.096251
-25.139392 88.668765 0.108805 0.095683
-23.157968 88.668765 0.096312 0.091413
-21.176544 88.668765 0.124889 0.091933
-19.195120 88.668765 0.133398 0.098082
-17.213696 88.668765 0.108971 0.126920
-15.232272 88.668765 0.119420 0.108684
-13.250848 88.668765 0.000000 0.000000
-11.269424 88.668765 0.000000 0.000000
-9.288001 88.668765 0.000000 0.000000
-7.306577 88.668765 0.000000 0.000000
-5.325153 88.668765 0.000000 0.000000
-3.343729 88.668765 0.000000 0.000000
-1.362305 88.668765 0.094731 0.096709
0.619119 88.668765 0.117172 0.091404
2.600543 88.668765 0.131992 0.162089
4.581967 88.668765 0.149351 0.126259
6.563391 88.668765 0.108922 0.083778
8.544815 88.668765 0.100586 0.100844
10.526239 88.668765 0.101047 0.137283
12.507663 88.668765 0.095356 0.141254
14.489087 88.668765 0.090562 0.113598
16.470511 88.668765 0.109102 0.118688
18.451935 88.668765 0.084038 0.119433
20.433359 88.668765 0.087681 0.144298
22.414783 88.668765 0.071354 0.106640
24.396207 88.668765 0.087760 0.118443
26.377631 88.668765 0.102812 0.129860
28.359055 88.668765 0.087139 0.122698
30.340479 88.668765 0.066495 0.104054
32.321903 88.668765 0.068940 0.099462
34.303327 88.668765 0.080367 0.129263
36.284751 88.668765 0.066347 0.101673
38.266175 88.668765 0.099334 0.108298
40.247599 88.668765 0.065619 0.130232
42.229023 88.668765 0.101489 0.130263
44.210447 88.668765 0.103426 0.132877
46.191871 88.668765 0.079536 0.105134
48.173295 88.668765 0.099728 0.144441
50.154719 88.668765 0.102365 0.134334
52.136143 88.668765 0.072933 0.138099
54.117567 88.668765 0.093877 0.120507
56.098991 88.668765 0.083508 0.138877
58.080415 88.668765 0.087530 0.104816
60.061839 88.668765 0.072126 0.133751
62.043263 88.668765 0.108237 0.117402
64.024687 88.668765 0.124320 0.131898
66.006110 88.668765 0.104462 0.127909
67.987534 88.668765 0.000000 0.000000
-132.136287 86.687341 7.674336 8.009291
-130.154863 86.687341 10.943320 7.083212
-128.173439 86.687341 4.191632 4.699075
-126.192015 86.687341 1.152487 0.281700
-124.210591 86.687341 0.233386 0.142066
-122.229167 86.687341 0.209684 0.162397
-120.247743 86.687341 0.194064 0.111817
-118.266319 86.687341 0.175871 0.126021
-116.284895 86.687341 0.188406 0.086822
-114.303471 86.687341 0.157678 0.126267
-112.322047 86.687341 0.000000 0.000000
-110.340623 86.687341 0.000000 0.000000
-108.359199 86.687341 0.000000 0.000000
-106.377775 86.687341 0.000000 0.000000
-104.396351 86.687341 0.000000 0.000000
-102.414927 86.687341 0.000000 0.000000
-100.433503 86.687341 0.000000 0.000000
-98.452079 86.687341 0.000000 0.000000
-96.470655 86.687341 0.000000 0.000000
-94.489231 86.687341 0.000000 0.000000
-92.507807 86.687341 0.000000 0.000000
-90.526383 86.687341 0.000000 0.000000
-88.544959 86.687341 0.088008 0.107906
-86.563536 86.687341 0.113297 0.094016
-84.582112 86.687341 0.093223 0.072663
-82.600688 86.687341 0.122956 0.075076
-80.619264 86.687341 0.118245 0.078439
-78.637840 86.687341 0.131783 0.090140
-76.656416 86.687341 0.122693 0.085365
-74.674992 86.687341 0.093322 0.128649
-72.693568 86.687341 0.057702 0.090943
-70.712144 86.687341 0.079690 0.083267
-68.730720 86.687341 0.098702 0.071463
-66.749296 86.687341 0.112739 0.087871
-64.767872 86.687341 0.095977 0.085155
-62.786448 86.687341 0.079606 0.086641
-60.805024 86.687341 0.091393 0.082000
-58.823600 86.687341 0.098709 0.108636
-56.842176 86.687341 0.098853 0.107166
-54.860752 86.687341 0.069864 0.091552
-52.879328 86.687341 0.102089 0.084306
-50.897904 86.687341 0.119040 0.102958
-48.916480 86.687341 0.106240 0.107847
-46.935056 86.687341 0.100484 0.125358
-44.953632 86.687341 0.095693 0.092132
-42.972208 86.687341 0.101859 0.105314
-40.990784 86.687341 0.115173 0.070208
-39.009360 86.687341 0.127328 0.090066
-37.027936 86.687341 0.112337 0.099515
-35.046512 86.687341 0.138267 0.088784
-33.065088 86.687341 0.076244 0.093384
-31.083664 86.687341 0.089559 0.094680
-29.102240 86.687341 0.057824 0.101712
-27.120816 86.687341 0.108360 0.093342
-25.139392 86.687341 0.088351 0.102327
-23.157968 86.687341 0.116041 0.066976
-21.176544 86.687341 0.111008 0.113287
-19.195120 86.687341 0.119600 0.133294
-17.213696 86.687341 0.132032 0.117606
-15.232272 86.687341 0.141194 0.122858
-13.250848 86.687341 0.000000 0.000000
-11.269424 86.687341 0.000000 0.000000
-9.288001 86.687341 0.000000 0.000000
-7.306577 86.687341 0.000000 0.000000
-5.325153 86.687341 0.000000 0.000000
-3.343729 86.687341 0.000000 0.000000
-1.362305 86.687341 0.076480 0.096611
0.619119 86.687341 0.078034 0.094731
2.600543 86.687341 0.106535 0.121948
4.581967 86.687341 0.102838 0.123851
6.563391 86.687341 0.128843 0.113359
8.544815 86.687341 0.120778 0.111290
10.526239 86.687341 0.069010 0.127382
12.507663 86.687341 0.071513 0.099679
14.489087 86.687341 0.089315 0.098816
16.470511 86.687341 0.078921 0.152263
18.451935 86.687341 0.068833 0.100754
20.433359 86.687341 0.080931 0.124196
22.414783 86.687341 0.083843 0.122801
24.396207 86.687341 0.052679 0.116059
26.377631 86.687341 0.087351 0.130221
28.359055 86.687341 0.109474 0.154307
30.340479 86.687341 0.060632 0.111832
32.321903 86.687341 0.064117 0.087923
34.303327 86.687341 0.105429 0.106622
36.284751 86.687341 0.076323 0.113011
38.266175 86.687341 0.082912 0.135674
40.247599 86.687341 0.053600 0.142650
42.229023 86.687341 0.086400 0.138186
44.210447 86.687341 0.081817 0.089294
46.191871 86.687341 0.088448 0.091150
48.173295 86.687341 0.091827 0.126052
50.154719 86.687341 0.094083 0.122673
52.136143 86.687341 0.077406 0.090009
54.117567 86.687341 0.092234 0.111628
56.098991 86.687341 0.065476 0.105267
58.080415 86.687341 0.066277 0.123309
60.061839 86.687341 0.088389 0.131031
62.043263 86.687341 0.106568 0.129408
64.024687 86.687341 0.125618 0.187002
66.006110 86.687341 0.073276 0.122732
67.987534 86.687341 0.000000 0.000000
-132.136287 84.705917 8.994809 8.203979
-130.154863 84.705917 10.247475 9.034064
-128.173439 84.705917 5.951145 5.331124
-126.192015 84.705917 1.945705 1.010272
-124.210591 84.705917 4.052327 3.353500
-122.229167 84.705917 0.228023 0.170075
-120.247743 84.705917 0.157425 0.112977
-118.266319 84.705917 0.201870 0.121887
-116.284895 84.705917 0.185864 0.080626
-114.303471 84.705917 0.187180 0.091833
-112.322047 84.705917 0.000000 0.000000
-110.340623 84.705917 0.000000 0.000000
-108.359199 84.705917 0.000000 0.000000
-106.377775 84.705917 0.000000 0.000000
-104.396351 84.705917 0.000000 0.000000
-102.414927 84.705917 0.000000 0.000000
-100.433503 84.705917 0.000000 0.000000
-98.452079 84.705917 0.000000 0.000000
-96.470655 84.705917 0.000000 0.000000
-94.489231 84.705917 0.000000 0.000000
-92.507807 84.705917 0.000000 0.000000
-90.526383 84.705917 0.083851 0.077497
-88.544959 84.705917 0.094225 0.061760
-86.563536 84.705917 0.109129 0.064184
-84.582112 84.705917 0.122486 0.045116
-82.600688 84.705917 0.114026 0.075719
-80.619264 84.705917 0.128253 0.082507
-78.637840 84.705917 0.114640 0.081674
-76.656416 84.705917 0.154479 0.103424
-74.674992 84.705917 0.114328 0.075369
-72.693568 84.705917 0.081522 0.091594
-70.712144 84.705917 0.064772 0.057874
-68.730720 84.705917 0.112130 0.087879
-66.749296 84.705917 0.110542 0.086436
-64.767872 84.705917 0.109400 0.083037
-62.786448 84.705917 0.084803 0.061575
-60.805024 84.705917 0.086378 0.089901