TITLE = "B00007"
VARIABLES = "position", "position(2)", "Vx", "Vy"
ZONE T="Frame 0", I=102, J=78
-132.136287 98.575885 0.000000 0.000000
-130.154863 98.575885 10.116160 0.471102
-128.173439 98.575885 15.472676 -0.447127
-126.192015 98.575885 10.993510 0.799715
-124.210591 98.575885 10.159410 0.342610
-122.229167 98.575885 9.855929 0.486401
-120.247743 98.575885 10.490512 0.397318
-118.266319 98.575885 10.230100 0.572842
-116.284895 98.575885 10.659308 0.828267
-114.303471 98.575885 0.000000 0.000000
-112.322047 98.575885 0.000000 0.000000
-110.340623 98.575885 0.000000 0.000000
-108.359199 98.575885 0.000000 0.000000
-106.377775 98.575885 0.000000 0.000000
-104.396351 98.575885 0.000000 0.000000
-102.414927 98.575885 0.000000 0.000000
-100.433503 98.575885 0.000000 0.000000
-98.452079 98.575885 0.000000 0.000000
-96.470655 98.575885 0.000000 0.000000
-94.489231 98.575885 0.000000 0.000000
-92.507807 98.575885 0.000000 0.000000
-90.526383 98.575885 0.000000 0.000000
-88.544959 98.575885 0.000000 0.000000
-86.563536 98.575885 10.531836 0.994051
-84.582112 98.575885 10.698661 0.885776
-82.600688 98.575885 10.920229 0.836293
-80.619264 98.575885 10.864384 0.934702
-78.637840 98.575885 10.899918 0.947405
-76.656416 98.575885 10.689463 0.651890
-74.674992 98.575885 10.919031 1.140445
-72.693568 98.575885 10.780452 0.570936
-70.712144 98.575885 10.879600 0.892093
-68.730720 98.575885 10.849332 1.032073
-66.749296 98.575885 10.916317 0.747127
-64.767872 98.575885 11.142755 0.796924
-62.786448 98.575885 10.929699 0.924289
-60.805024 98.575885 11.022877 0.941911
-58.823600 98.575885 10.877095 0.749627
-56.842176 98.575885 11.431699 0.908674
-54.860752 98.575885 11.157060 1.144692
-52.879328 98.575885 11.030464 0.764681
-50.897904 98.575885 11.253350 0.942529
-48.916480 98.575885 11.169928 0.997918
-46.935056 98.575885 11.680826 1.095672
-44.953632 98.575885 11.251010 0.724007
-42.972208 98.575885 11.160352 0.757403
-40.990784 98.575885 11.217821 0.907678
-39.009360 98.575885 11.931622 1.047682
-37.027936 98.575885 11.664058 0.757670
-35.046512 98.575885 11.458862 0.663978
-33.065088 98.575885 11.618811 0.721986
-31.083664 98.575885 11.664157 0.880387
-29.102240 98.575885 11.729643 0.757617
-27.120816 98.575885 11.518738 0.482723
-25.139392 98.575885 11.244942 0.482942
-23.157968 98.575885 11.681417 0.698850
-21.176544 98.575885 11.707471 0.498910
-19.195120 98.575885 11.800685 0.621053
-17.213696 98.575885 0.000000 0.000000
-15.232272 98.575885 0.000000 0.000000
-13.250848 98.575885 0.000000 0.000000
-11.269424 98.575885 0.000000 0.000000
-9.288001 98.575885 0.000000 0.000000
-7.306577 98.575885 0.000000 0.000000
-5.325153 98.575885 11.710183 0.328188
-3.343729 98.575885 11.830629 0.270207
-1.362305 98.575885 11.799586 0.392005
0.619119 98.575885 11.723528 -0.063323
2.600543 98.575885 11.751231 -0.110047
4.581967 98.575885 11.770542 0.231336
6.563391 98.575885 11.670168 -0.349948
8.544815 98.575885 11.826241 0.007011
10.526239 98.575885 11.672648 -0.216619
12.507663 98.575885 11.763840 -0.210600
14.489087 98.575885 11.797439 -0.183534
16.470511 98.575885 11.697849 -0.114459
18.451935 98.575885 11.698515 -0.032041
20.433359 98.575885 11.823450 -0.060214
22.414783 98.575885 11.741817 -0.345742
24.396207 98.575885 11.689910 -0.295712
26.377631 98.575885 11.529022 -0.269928
28.359055 98.575885 11.519369 -0.181296
30.340479 98.575885 11.467669 -0.435205
32.321903 98.575885 11.447871 -0.353460
34.303327 98.575885 11.317381 -0.481220
36.284751 98.575885 11.429790 -0.269336
38.266175 98.575885 11.346724 -0.240763
40.247599 98.575885 11.397656 -0.308549
42.229023 98.575885 11.458674 -0.210779
44.210447 98.575885 11.379813 -0.025283
46.191871 98.575885 11.091274 -0.368024
48.173295 98.575885 11.163194 -0.374584
50.154719 98.575885 11.227335 -0.380051
52.136143 98.575885 11.180796 -0.108466
54.117567 98.575885 11.097249 -0.243527
56.098991 98.575885 11.055078 -0.459463
58.080415 98.575885 11.304354 -0.517789
60.061839 98.575885 11.261295 -0.092347
62.043263 98.575885 11.196886 0.000523
64.024687 98.575885 11.017682 -0.266118
66.006110 98.575885 11.061977 -0.045748
67.987534 98.575885 0.000000 0.000000
-132.136287 96.594461 -0.423983 6.519663
-130.154863 96.594461 9.647022 0.492255
-128.173439 96.594461 10.059761 0.739864
-126.192015 96.594461 10.438111 0.493980
-124.210591 96.594461 10.150622 0.537169
-122.229167 96.594461 10.051434 0.367730
-120.247743 96.594461 10.195889 0.414200
-118.266319 96.594461 10.087892 0.502451
-116.284895 96.594461 10.460211 0.664263
-114.303471 96.594461 10.485313 0.572172
-112.322047 96.594461 0.000000 0.000000
-110.340623 96.594461 0.000000 0.000000
-108.359199 96.594461 0.000000 0.000000
-106.377775 96.594461 0.000000 0.000000
-104.396351 96.594461 0.000000 0.000000
-102.414927 96.594461 0.000000 0.000000
-100.433503 96.594461 0.000000 0.000000
-98.452079 96.594461 0.000000 0.000000
-96.470655 96.594461 0.000000 0.000000
-94.489231 96.594461 0.000000 0.000000
-92.507807 96.594461 0.000000 0.000000
-90.526383 96.594461 0.000000 0.000000
-88.544959 96.594461 0.000000 0.000000
-86.563536 96.594461 10.747902 0.955564
-84.582112 96.594461 10.698465 0.930137
-82.600688 96.594461 10.823191 0.917421
-80.619264 96.594461 10.778897 1.401183
-78.637840 96.594461 10.828987 1.026243
-76.656416 96.594461 10.807085 0.879105
-74.674992 96.594461 11.044241 0.984481
-72.693568 96.594461 10.801082 0.667735
-70.712144 96.594461 10.884526 0.918307
-68.730720 96.594461 10.852065 1.123826
-66.749296 96.594461 10.983291 0.890407
-64.767872 96.594461 11.088838 0.795466
-62.786448 96.594461 10.956809 0.895625
-60.805024 96.594461 11.122896 1.056384
-58.823600 96.594461 10.992471 0.982965
-56.842176 96.594461 11.368642 0.856055
-54.860752 96.594461 11.512415 1.079964
-52.879328 96.594461 11.102947 1.002877
-50.897904 96.594461 11.465498 0.998998
-48.916480 96.594461 11.250219 0.980780
-46.935056 96.594461 11.711643 1.098172
-44.953632 96.594461 11.298928 0.896827
-42.972208 96.594461 11.384268 0.768430
-40.990784 96.594461 11.373327 0.773576
-39.009360 96.594461 11.694289 0.820303
-37.027936 96.594461 11.613087 0.755213
-35.046512 96.594461 11.449918 0.826274
-33.065088 96.594461 11.483671 0.843724
-31.083664 96.594461 11.707308 0.648943
-29.102240 96.594461 11.679780 0.599113
-27.120816 96.594461 11.596012 0.364481
-25.139392 96.594461 11.369609 0.482059
-23.157968 96.594461 11.861705 0.527944
-21.176544 96.594461 11.569948 0.543075
-19.195120 96.594461 12.012508 0.734154
-17.213696 96.594461 11.535421 0.391617
-15.232272 96.594461 0.000000 0.000000
-13.250848 96.594461 0.000000 0.000000
-11.269424 96.594461 0.000000 0.000000
-9.288001 96.594461 0.000000 0.000000
-7.306577 96.594461 0.000000 0.000000
-5.325153 96.594461 11.751468 0.285488
-3.343729 96.594461 11.796017 0.466401
-1.362305 96.594461 11.819362 0.354678
0.619119 96.594461 11.876002 0.253013
2.600543 96.594461 11.774765 -0.076869
4.581967 96.594461 11.834033 0.180092
6.563391 96.594461 11.810147 -0.043275
8.544815 96.594461 11.957586 -0.233848
10.526239 96.594461 11.877752 -0.224499
12.507663 96.594461 11.867511 -0.090026
14.489087 96.594461 11.781061 -0.188241
16.470511 96.594461 11.699495 -0.209075
18.451935 96.594461 11.637912 0.014571
20.433359 96.594461 11.819044 -0.206666
22.414783 96.594461 11.725093 -0.268825
24.396207 96.594461 11.720984 -0.370738
26.377631 96.594461 11.621541 -0.182585
28.359055 96.594461 11.677088 -0.245593
30.340479 96.594461 11.373158 -0.314394
32.321903 96.594461 11.533261 -0.424431
34.303327 96.594461 11.471157 -0.385417
36.284751 96.594461 11.435360 -0.339087
38.266175 96.594461 11.479925 -0.324379
40.247599 96.594461 11.673084 -0.359393
42.229023 96.594461 11.488477 -0.147567
44.210447 96.594461 11.411219 -0.285284
46.191871 96.594461 11.208241 -0.303610
48.173295 96.594461 11.330102 -0.275454
50.154719 96.594461 11.389037 -0.271782
52.136143 96.594461 11.066386 -0.027292
54.117567 96.594461 11.151106 -0.269936
56.098991 96.594461 11.140173 -0.391725
58.080415 96.594461 11.230610 -0.353482
60.061839 96.594461 11.162651 -0.137492
62.043263 96.594461 11.132961 -0.136252
64.024687 96.594461 11.030992 -0.236005
66.006110 96.594461 11.031370 -0.057336
67.987534 96.594461 0.000000 0.000000
-132.136287 94.613037 -12.744537 8.833180
-130.154863 94.613037 9.689018 0.512192
-128.173439 94.613037 10.006021 0.801088
-126.192015 94.613037 10.349077 0.522679
-124.210591 94.613037 10.223718 0.566910
-122.229167 94.613037 10.466561 0.543467
-120.247743 94.613037 10.206839 0.579025
-118.266319 94.613037 10.301173 0.550995
-116.284895 94.613037 10.451126 0.500936
-114.303471 94.613037 10.406676 0.546770
-112.322047 94.613037 0.000000 0.000000
-110.340623 94.613037 0.000000 0.000000
-108.359199 94.613037 0.000000 0.000000
-106.377775 94.613037 0.000000 0.000000
-104.396351 94.613037 0.000000 0.000000
-102.414927 94.613037 0.000000 0.000000
-100.433503 94.613037 0.000000 0.000000
-98.452079 94.613037 0.000000 0.000000
-96.470655 94.613037 0.000000 0.000000
-94.489231 94.613037 0.000000 0.000000
-92.507807 94.613037 0.000000 0.000000
-90.526383 94.613037 0.000000 0.000000
-88.544959 94.613037 0.000000 0.000000
-86.563536 94.613037 10.734542 0.856057
-84.582112 94.613037 10.730510 0.925947
-82.600688 94.613037 10.844707 0.796230
-80.619264 94.613037 10.935884 1.111024
-78.637840 94.613037 10.825885 1.085708
-76.656416 94.613037 10.925004 1.064222
-74.674992 94.613037 11.082385 0.892056
-72.693568 94.613037 10.810749 0.887331
-70.712144 94.613037 10.980969 0.845438
-68.730720 94.613037 10.859684 0.957827
-66.749296 94.613037 10.953613 1.015973
-64.767872 94.613037 10.929091 0.935396
-62.786448 94.613037 10.928681 0.859548
-60.805024 94.613037 11.177310 0.961647
-58.823600 94.613037 11.035027 1.154450
-56.842176 94.613037 11.300835 0.982907
-54.860752 94.613037 11.449140 1.025948
-52.879328 94.613037 11.282963 1.104962
-50.897904 94.613037 11.529227 0.842687
-48.916480 94.613037 11.372421 0.896507
-46.935056 94.613037 11.774172 1.053612
-44.953632 94.613037 11.465765 0.957920
-42.972208 94.613037 11.407813 0.753973
-40.990784 94.613037 11.383332 0.681424
-39.009360 94.613037 11.463637 0.757684
-37.027936 94.613037 11.525867 0.846766
-35.046512 94.613037 11.586455 0.718333
-33.065088 94.613037 11.493844 0.786203
-31.083664 94.613037 11.653072 0.561047
-29.102240 94.613037 11.626039 0.552611
-27.120816 94.613037 11.620433 0.492787
-25.139392 94.613037 11.717264 0.695372
-23.157968 94.613037 11.839231 0.503001
-21.176544 94.613037 11.784098 0.442349
-19.195120 94.613037 12.032043 0.553265
-17.213696 94.613037 11.677182 0.471448
-15.232272 94.613037 0.000000 0.000000
-13.250848 94.613037 0.000000 0.000000
-11.269424 94.613037 0.000000 0.000000
-9.288001 94.613037 0.000000 0.000000
-7.306577 94.613037 0.000000 0.000000
-5.325153 94.613037 11.842975 0.402346
-3.343729 94.613037 11.761536 0.428929
-1.362305 94.613037 11.742779 0.329574
0.619119 94.613037 11.795394 0.245731
2.600543 94.613037 11.788914 0.013274
4.581967 94.613037 11.820222 0.133443
6.563391 94.613037 11.777356 -0.103544
8.544815 94.613037 11.780290 -0.224562
10.526239 94.613037 11.897283 -0.099902
12.507663 94.613037 11.847077 0.020794
14.489087 94.613037 11.677842 -0.153361
16.470511 94.613037 11.681409 -0.287070
18.451935 94.613037 11.816974 -0.093600
20.433359 94.613037 11.803158 -0.154012
22.414783 94.613037 11.777103 -0.319812
24.396207 94.613037 11.709631 -0.324068
26.377631 94.613037 11.577682 -0.315217
28.359055 94.613037 11.624159 -0.263156
30.340479 94.613037 11.441890 -0.374069
32.321903 94.613037 11.529777 -0.478848
34.303327 94.613037 11.552712 0.039379
36.284751 94.613037 11.487470 -0.332735
38.266175 94.613037 11.349623 -0.317952
40.247599 94.613037 11.556849 -0.206267
42.229023 94.613037 11.351204 -0.263318
44.210447 94.613037 11.474167 -0.405711
46.191871 94.613037 11.256438 -0.400234
48.173295 94.613037 11.321770 -0.162638
50.154719 94.613037 11.201504 -0.297232
52.136143 94.613037 11.173594 -0.307498
54.117567 94.613037 11.083952 -0.401448
56.098991 94.613037 11.179093 -0.271371
58.080415 94.613037 11.084894 -0.294430
60.061839 94.613037 11.085692 -0.219516
62.043263 94.613037 11.089804 -0.194028
64.024687 94.613037 11.089067 -0.324930
66.006110 94.613037 11.017646 -0.069171
67.987534 94.613037 0.000000 0.000000
-132.136287 92.631613 -4.719322 10.886075
-130.154863 92.631613 10.141769 0.679699
-128.173439 92.631613 16.753719 -14.437265
-126.192015 92.631613 10.232778 0.598076
-124.210591 92.631613 10.443278 0.384421
-122.229167 92.631613 10.628219 0.312219
-120.247743 92.631613 10.542028 0.610625
-118.266319 92.631613 10.398585 0.916135
-116.284895 92.631613 10.631709 0.563919
-114.303471 92.631613 10.605230 0.515332
-112.322047 92.631613 0.000000 0.000000
-110.340623 92.631613 0.000000 0.000000
-108.359199 92.631613 0.000000 0.000000
-106.377775 92.631613 0.000000 0.000000
-104.396351 92.631613 0.000000 0.000000
-102.414927 92.631613 0.000000 0.000000
-100.433503 92.631613 0.000000 0.000000
-98.452079 92.631613 0.000000 0.000000
-96.470655 92.631613 0.000000 0.000000
-94.489231 92.631613 0.000000 0.000000
-92.507807 92.631613 0.000000 0.000000
-90.526383 92.631613 0.000000 0.000000
-88.544959 92.631613 10.577662 0.989020
-86.563536 92.631613 10.534138 0.940276
-84.582112 92.631613 10.845261 1.090281
-82.600688 92.631613 10.885319 1.178848
-80.619264 92.631613 10.828138 0.926047
-78.637840 92.631613 10.762711 1.228543
-76.656416 92.631613 10.961905 1.382770
-74.674992 92.631613 11.103405 0.933334
-72.693568 92.631613 10.955633 0.953108
-70.712144 92.631613 10.869320 0.955270
-68.730720 92.631613 11.004055 1.002108
-66.749296 92.631613 10.951846 0.890050
-64.767872 92.631613 10.808254 0.955160
-62.786448 92.631613 10.904492 0.858781
-60.805024 92.631613 11.013573 0.990545
-58.823600 92.631613 11.147462 0.960322
-56.842176 92.631613 11.274156 1.171162
-54.860752 92.631613 11.122415 1.016693
-52.879328 92.631613 11.418146 1.058961
-50.897904 92.631613 11.370166 0.774995
-48.916480 92.631613 11.202444 0.879069
-46.935056 92.631613 11.584293 0.983313
-44.953632 92.631613 11.518779 1.155770
-42.972208 92.631613 11.516088 0.954856
-40.990784 92.631613 11.307914 0.945720
-39.009360 92.631613 11.475033 1.012318
-37.027936 92.631613 11.642479 0.813038
-35.046512 92.631613 11.495095 0.648373
-33.065088 92.631613 11.424140 0.849845
-31.083664 92.631613 11.572368 0.725126
-29.102240 92.631613 11.304944 0.771291
-27.120816 92.631613 11.575874 0.840140
-25.139392 92.631613 11.721007 0.868729
-23.157968 92.631613 11.865778 0.748953
-21.176544 92.631613 11.728944 0.667194
-19.195120 92.631613 11.851606 0.588358
-17.213696 92.631613 12.014596 0.638091
-15.232272 92.631613 0.000000 0.000000
-13.250848 92.631613 0.000000 0.000000
-11.269424 92.631613 0.000000 0.000000
-9.288001 92.631613 0.000000 0.000000
-7.306577 92.631613 0.000000 0.000000
-5.325153 92.631613 11.691696 0.569058
-3.343729 92.631613 11.775804 0.307420
-1.362305 92.631613 11.828603 0.312582
0.619119 92.631613 11.856742 -0.007269
2.600543 92.631613 11.812456 -0.109972
4.581967 92.631613 11.914836 0.072079
6.563391 92.631613 11.954068 0.125789
8.544815 92.631613 11.750860 -0.098265
10.526239 92.631613 11.827615 0.201068
12.507663 92.631613 11.755585 0.006713
14.489087 92.631613 11.845675 -0.257988
16.470511 92.631613 11.793430 -0.172067
18.451935 92.631613 11.855930 -0.052775
20.433359 92.631613 11.774941 -0.206348
22.414783 92.631613 11.833768 -0.263477
24.396207 92.631613 11.720530 -0.145524
26.377631 92.631613 11.460573 -0.564814
28.359055 92.631613 11.500113 -0.261868
30.340479 92.631613 11.558154 -0.359750
32.321903 92.631613 11.469393 -0.362130
34.303327 92.631613 11.221842 0.100232
36.284751 92.631613 11.496274 -0.388616
38.266175 92.631613 11.390486 -0.404831
40.247599 92.631613 11.274848 -0.196212
42.229023 92.631613 11.290574 -0.350607
44.210447 92.631613 11.307150 -0.346548
46.191871 92.631613 11.283031 -0.502730
48.173295 92.631613 11.183791 -0.316513
50.154719 92.631613 11.054521 -0.327488
52.136143 92.631613 11.245228 -0.395955
54.117567 92.631613 11.068397 -0.374726
56.098991 92.631613 11.158777 -0.259958
58.080415 92.631613 11.074622 -0.350293
60.061839 92.631613 11.133933 -0.338571
62.043263 92.631613 11.102262 -0.265993
64.024687 92.631613 10.980177 -0.259119
66.006110 92.631613 10.925777 -0.190000
67.987534 92.631613 0.000000 0.000000
-132.136287 90.650189 10.323210 0.836826
-130.154863 90.650189 10.028378 0.645832
-128.173439 90.650189 10.154883 0.527486
-126.192015 90.650189 10.204576 0.369408
-124.210591 90.650189 10.431046 0.350591
-122.229167 90.650189 10.430551 0.358111
-120.247743 90.650189 10.318240 0.410601
-118.266319 90.650189 10.373252 0.471331
-116.284895 90.650189 10.356503 0.596204
-114.303471 90.650189 10.439861 0.645230
-112.322047 90.650189 0.000000 0.000000
-110.340623 90.650189 0.000000 0.000000
-108.359199 90.650189 0.000000 0.000000
-106.377775 90.650189 0.000000 0.000000
-104.396351 90.650189 0.000000 0.000000
-102.414927 90.650189 0.000000 0.000000
-100.433503 90.650189 0.000000 0.000000
-98.452079 90.650189 0.000000 0.000000
-96.470655 90.650189 0.000000 0.000000
-94.489231 90.650189 0.000000 0.000000
-92.507807 90.650189 0.000000 0.000000
-90.526383 90.650189 0.000000 0.000000
-88.544959 90.650189 10.606606 1.049053
-86.563536 90.650189 10.521228 1.024634
-84.582112 90.650189 10.715226 0.925290
-82.600688 90.650189 10.677376 0.927734
-80.619264 90.650189 10.732601 0.944600
-78.637840 90.650189 10.937503 1.166638
-76.656416 90.650189 11.052611 1.288230
-74.674992 90.650189 10.999627 1.095040
-72.693568 90.650189 11.120802 0.854618
-70.712144 90.650189 10.861964 1.191948
-68.730720 90.650189 10.842894 1.321276
-66.749296 90.650189 10.889464 1.008201
-64.767872 90.650189 10.890711 0.914280
-62.786448 90.650189 11.141969 0.975292
-60.805024 90.650189 11.118607 1.233752
-58.823600 90.650189 11.276983 1.390172
-56.842176 90.650189 11.229612 1.120795
-54.860752 90.650189 10.998819 0.916848
-52.879328 90.650189 11.258682 1.091888
-50.897904 90.650189 11.172972 0.813502
-48.916480 90.650189 11.362272 0.979303
-46.935056 90.650189 11.551037 1.044596
-44.953632 90.650189 11.478604 0.980759
-42.972208 90.650189 11.343479 0.815030
-40.990784 90.650189 11.295344 1.027364
-39.009360 90.650189 11.665484 0.900011
-37.027936 90.650189 11.801984 0.747338
-35.046512 90.650189 11.755257 0.760615
-33.065088 90.650189 11.679589 0.806242
-31.083664 90.650189 11.644732 0.798427
-29.102240 90.650189 11.516385 0.831582
-27.120816 90.650189 11.576600 0.922636
-25.139392 90.650189 11.796156 0.790250
-23.157968 90.650189 11.915978 0.549801
-21.176544 90.650189 11.735955 0.671860
-19.195120 90.650189 11.759923 0.742307
-17.213696 90.650189 11.688961 0.748002
-15.232272 90.650189 0.000000 0.000000
-13.250848 90.650189 0.000000 0.000000
-11.269424 90.650189 0.000000 0.000000
-9.288001 90.650189 0.000000 0.000000
-7.306577 90.650189 0.000000 0.000000
-5.325153 90.650189 11.906150 0.428535
-3.343729 90.650189 11.836549 0.378018
-1.362305 90.650189 11.921320 0.419589
0.619119 90.650189 11.930833 0.000913
2.600543 90.650189 11.862601 -0.067367
4.581967 90.650189 12.001195 0.015118
6.563391 90.650189 11.946001 0.144853
8.544815 90.650189 11.941799 -0.135351
10.526239 90.650189 11.894583 -0.158775
12.507663 90.650189 11.840164 -0.168894
14.489087 90.650189 11.956676 0.010344
16.470511 90.650189 11.877984 -0.234839
18.451935 90.650189 11.799077 -0.113571
20.433359 90.650189 11.850765 -0.280518
22.414783 90.650189 11.891232 -0.314760
24.396207 90.650189 11.719000 -0.313726
26.377631 90.650189 11.689368 -0.533554
28.359055 90.650189 11.666977 -0.399897
30.340479 90.650189 11.622250 -0.331243
32.321903 90.650189 11.598302 -0.397205
34.303327 90.650189 11.306067 -0.295012
36.284751 90.650189 11.465279 -0.493403
38.266175 90.650189 11.354352 -0.466131
40.247599 90.650189 11.254172 -0.360110
42.229023 90.650189 11.297827 -0.354648
44.210447 90.650189 11.395393 -0.398748
46.191871 90.650189 11.326133 -0.423386
48.173295 90.650189 11.290890 -0.384557
50.154719 90.650189 11.032505 -0.295304
52.136143 90.650189 10.884220 -0.516012
54.117567 90.650189 10.996742 -0.262944
56.098991 90.650189 11.208168 -0.368269
58.080415 90.650189 10.978208 -0.523916
60.061839 90.650189 11.046742 -0.314447
62.043263 90.650189 11.073226 -0.315568
64.024687 90.650189 10.917785 -0.245900
66.006110 90.650189 10.841951 -0.125723
67.987534 90.650189 0.000000 0.000000
-132.136287 88.668765 10.651678 0.512957
-130.154863 88.668765 10.666696 0.579360
-128.173439 88.668765 10.174190 0.415018
-126.192015 88.668765 9.984261 0.442960
-124.210591 88.668765 10.476972 0.588282
-122.229167 88.668765 10.430374 0.395167
-120.247743 88.668765 10.276899 0.398157
-118.266319 88.668765 10.424701 0.447561
-116.284895 88.668765 10.340573 0.856858
-114.303471 88.668765 10.318652 0.773952
-112.322047 88.668765 0.000000 0.000000
-110.340623 88.668765 0.000000 0.000000
-108.359199 88.668765 0.000000 0.000000
-106.377775 88.668765 0.000000 0.000000
-104.396351 88.668765 0.000000 0.000000
-102.414927 88.668765 0.000000 0.000000
-100.433503 88.668765 0.000000 0.000000
-98.452079 88.668765 0.000000 0.000000
-96.470655 88.668765 0.000000 0.000000
-94.489231 88.668765 0.000000 0.000000
-92.507807 88.668765 0.000000 0.000000
-90.526383 88.668765 0.000000 0.000000
-88.544959 88.668765 10.602752 1.200702
-86.563536 88.668765 10.555560 1.298512
-84.582112 88.668765 10.650186 0.985469
-82.600688 88.668765 10.725286 0.961275
-80.619264 88.668765 10.771553 0.994487
-78.637840 88.668765 10.822951 1.021876
-76.656416 88.668765 10.981692 1.230167
-74.674992 88.668765 10.866445 1.125746
-72.693568 88.668765 11.078052 0.969018
-70.712144 88.668765 11.097980 1.132096
-68.730720 88.668765 10.962384 1.378927
-66.749296 88.668765 10.853622 1.217697
-64.767872 88.668765 11.191297 1.042551
-62.786448 88.668765 11.199870 0.951389
-60.805024 88.668765 11.171856 1.153725
-58.823600 88.668765 11.055861 1.440996
-56.842176 88.668765 11.048196 1.443324
-54.860752 88.668765 11.071922 1.189799
-52.879328 88.668765 11.213797 1.118441
-50.897904 88.668765 11.263647 0.934994
-48.916480 88.668765 11.399033 0.924129
-46.935056 88.668765 11.604308 0.925120
-44.953632 88.668765 11.399192 0.898864
-42.972208 88.668765 11.252481 0.792416
-40.990784 88.668765 11.450508 0.854245
-39.009360 88.668765 11.602197 0.878240
-37.027936 88.668765 11.783618 0.796712
-35.046512 88.668765 11.763876 0.766866
-33.065088 88.668765 11.735478 0.765627
-31.083664 88.668765 11.593801 0.886402
-29.102240 88.668765 11.749766 0.855313
-27.120816 88.668765 11.654261 0.825029
-25.139392 88.668765 11.598938 0.613243
-23.157968 88.668765 11.930100 0.477902
-21.176544 88.668765 11.853271 0.642903
-19.195120 88.668765 11.754013 0.717207
-17.213696 88.668765 11.928620 0.406687
-15.232272 88.668765 0.000000 0.000000
-13.250848 88.668765 0.000000 0.000000
-11.269424 88.668765 0.000000 0.000000
-9.288001 88.668765 0.000000 0.000000
-7.306577 88.668765 0.000000 0.000000
-5.325153 88.668765 12.099991 0.327511
-3.343729 88.668765 11.948556 0.308954
-1.362305 88.668765 11.949718 0.389789
0.619119 88.668765 11.924644 0.058278
2.600543 88.668765 11.845703 -0.077627
4.581967 88.668765 11.904709 0.096570
6.563391 88.668765 11.886082 -0.071307
8.544815 88.668765 11.957832 0.416493
10.526239 88.668765 11.822741 -0.165376
12.507663 88.668765 11.865019 -0.120555
14.489087 88.668765 11.911607 0.215113
16.470511 88.668765 11.674340 -0.295648
18.451935 88.668765 11.755939 -0.210792
20.433359 88.668765 11.895928 -0.373986
22.414783 88.668765 11.778691 -0.370564
24.396207 88.668765 11.665842 -0.518190
26.377631 88.668765 11.663318 -0.454510
28.359055 88.668765 11.714791 -0.406041
30.340479 88.668765 11.730253 -0.419976
32.321903 88.668765 11.664885 -0.411245
34.303327 88.668765 11.529938 -0.487748
36.284751 88.668765 11.533856 -0.464140
38.266175 88.668765 11.504291 -0.542722
40.247599 88.668765 11.502377 -0.476441
42.229023 88.668765 11.395439 -0.277414
44.210447 88.668765 11.432282 -0.433158
46.191871 88.668765 11.383065 -0.486544
48.173295 88.668765 11.403482 -0.509377
50.154719 88.668765 11.155539 -0.458077
52.136143 88.668765 10.979781 -0.621389
54.117567 88.668765 11.110708 -0.274870
56.098991 88.668765 11.063128 -0.436414
58.080415 88.668765 10.909547 -0.531283
60.061839 88.668765 10.780775 -0.293893
62.043263 88.668765 10.906780 -0.180164
64.024687 88.668765 10.971767 -0.158731
66.006110 88.668765 10.796608 -0.108628
67.987534 88.668765 0.000000 0.000000
-132.136287 86.687341 -8.817105 -1.857418
-130.154863 86.687341 10.543979 -0.033683
-128.173439 86.687341 10.108964 0.413603
-126.192015 86.687341 10.034264 0.570503
-124.210591 86.687341 10.484805 0.572889
-122.229167 86.687341 10.582913 0.446072
-120.247743 86.687341 10.101340 0.607852
-118.266319 86.687341 10.108961 0.731815
-116.284895 86.687341 10.299272 0.710569
-114.303471 86.687341 10.540318 0.761433
-112.322047 86.687341 0.000000 0.000000
-110.340623 86.687341 0.000000 0.000000
-108.359199 86.687341 0.000000 0.000000
-106.377775 86.687341 0.000000 0.000000
-104.396351 86.687341 0.000000 0.000000
-102.414927 86.687341 0.000000 0.000000
-100.433503 86.687341 0.000000 0.000000
-98.452079 86.687341 0.000000 0.000000
-96.470655 86.687341 0.000000 0.000000
-94.489231 86.687341 0.000000 0.000000
-92.507807 86.687341 0.000000 0.000000
-90.526383 86.687341 0.000000 0.000000
-88.544959 86.687341 10.561952 1.207727
-86.563536 86.687341 10.523106 1.192486
-84.582112 86.687341 10.724158 1.070932
-82.600688 86.687341 10.695787 1.029799
-80.619264 86.687341 10.701623 1.132114
-78.637840 86.687341 10.606037 0.950495
-76.656416 86.687341 10.750823 1.167256
-74.674992 86.687341 10.853569 1.257297
-72.693568 86.687341 10.973888 1.292611
-70.712144 86.687341 11.032539 1.186255
-68.730720 86.687341 11.104916 1.112751
-66.749296 86.687341 11.001464 1.288055
-64.767872 86.687341 10.970201 1.280267
-62.786448 86.687341 11.127867 1.020807
-60.805024 86.687341 11.111715 1.162534
-58.823600 86.687341 11.122375 1.303786
-56.842176 86.687341 11.108850 1.163000
-54.860752 86.687341 11.154415 1.229627
-52.879328 86.687341 11.340255 1.112282
-50.897904 86.687341 11.377310 1.194697
-48.916480 86.687341 11.365195 0.992168
-46.935056 86.687341 11.547795 1.057818
-44.953632 86.687341 11.565681 1.114393
-42.972208 86.687341 11.369167 1.057924
-40.990784 86.687341 11.472015 0.985252
-39.009360 86.687341 11.530646 1.027740
-37.027936 86.687341 11.632824 1.117724
-35.046512 86.687341 11.800914 0.730538
-33.065088 86.687341 11.717040 0.827503
-31.083664 86.687341 11.651072 1.082085
-29.102240 86.687341 11.893888 0.916591
-27.120816 86.687341 11.849109 0.943855
-25.139392 86.687341 11.657589 0.740270
-23.157968 86.687341 11.932851 0.596331
-21.176544 86.687341 12.234904 0.668278
-19.195120 86.687341 11.878803 0.596775
-17.213696 86.687341 11.971161 0.434042
-15.232272 86.687341 0.000000 0.000000
-13.250848 86.687341 0.000000 0.000000
-11.269424 86.687341 0.000000 0.000000
-9.288001 86.687341 0.000000 0.000000
-7.306577 86.687341 0.000000 0.000000
-5.325153 86.687341 12.144259 0.366469
-3.343729 86.687341 12.006598 0.382963
-1.362305 86.687341 11.972619 0.243574
0.619119 86.687341 12.020719 0.204464
2.600543 86.687341 11.779048 -0.016116
4.581967 86.687341 11.985341 -0.117710
6.563391 86.687341 11.963938 0.074966
8.544815 86.687341 11.951621 -0.256178
10.526239 86.687341 11.831587 0.005116
12.507663 86.687341 11.952315 -0.162566
14.489087 86.687341 11.885460 -0.161648
16.470511 86.687341 11.646543 -0.195934
18.451935 86.687341 11.816011 -0.119948
20.433359 86.687341 11.736859 -0.320191
22.414783 86.687341 11.811719 -0.345427
24.396207 86.687341 11.685357 -0.541401
26.377631 86.687341 11.683388 -0.529513
28.359055 86.687341 11.756448 -0.424161
30.340479 86.687341 11.739763 -0.459816
32.321903 86.687341 11.720330 -0.373404
34.303327 86.687341 11.304802 -0.507494
36.284751 86.687341 11.299116 -0.446913
38.266175 86.687341 11.658220 -0.649436
40.247599 86.687341 11.564269 -0.629211
42.229023 86.687341 11.436570 -0.294825
44.210447 86.687341 11.188725 -0.401225
46.191871 86.687341 11.247620 -0.495733
48.173295 86.687341 11.212994 -0.571204
50.154719 86.687341 11.119681 -0.512949
52.136143 86.687341 11.342400 -0.665847
54.117567 86.687341 11.173444 -0.378990
56.098991 86.687341 10.916059 -0.476209
58.080415 86.687341 11.033340 -0.615721
60.061839 86.687341 10.951382 -0.369956
62.043263 86.687341 10.858532 -0.318925
64.024687 86.687341 11.005465 -0.283356
66.006110 86.687341 10.732469 -0.212412
67.987534 86.687341 0.000000 0.000000
-132.136287 84.705917 -9.048380 -1.674695
-130.154863 84.705917 10.212513 0.188784
-128.173439 84.705917 10.334965 0.581244
-126.192015 84.705917 10.385568 0.642153
-124.210591 84.705917 10.289606 0.543803
-122.229167 84.705917 10.332752 0.438656
-120.247743 84.705917 10.032408 0.712963
-118.266319 84.705917 9.943682 0.719340
-116.284895 84.705917 10.117023 0.682581
-114.303471 84.705917 10.631024 0.807846
-112.322047 84.705917 0.000000 0.000000
-110.340623 84.705917 0.000000 0.000000
-108.359199 84.705917 0.000000 0.000000
-106.377775 84.705917 0.000000 0.000000
-104.396351 84.705917 0.000000 0.000000
-102.414927 84.705917 0.000000 0.000000
-100.433503 84.705917 0.000000 0.000000